640
Lattice="19.152215 0.0 0.0 0.0 19.152215 0.0 0.0 0.0 19.152215" Properties=species:S:1:pos:R:3:momenta:R:3:forces:R:3 energy=-80022.125 stress="-0.0029651480726897717 -0.0008747945539653301 0.001135332160629332 -0.0008747945539653301 -0.0011802251683548093 0.0005430440069176257 0.001135332160629332 0.0005430440069176257 -0.0014590260107070208" pbc="T T T"
C        2.32575745       9.21708568       2.26911247      -0.25818985      -0.34219308      -0.40601061      -0.33710223       0.60852987      -0.62783045
C        0.93002483       9.67611156       1.99694247      -0.83175922      -0.99371461       0.49414251       0.49338675       0.12063995      -0.03842747
O        0.57328642      10.32056405       1.01079655      -0.09148471      -0.13931036       0.22796257       0.30555463      -0.09715950      -0.71453667
O        0.06492876       9.38451254       2.90741855       0.57221529      -1.38552637       0.59422144      -1.58929205      -0.21101642       0.66562837
H        0.41934921       8.80718068       3.73767199       0.18305344      -0.29827154      -0.29245845      -0.21623269       0.10063511       0.15698786
H        2.93509868      10.10748576       2.38046536      -0.02171053      -0.02583704       0.06171099       0.25818074       0.14613706       0.59654456
H        2.70303408       8.78600831       1.37368851      -0.03162588      -0.32495156      -0.15029209       0.32525456      -0.63095593      -0.86753649
H        2.37587880       8.50006259       3.07250235       0.10479402       0.04552420      -0.02734164       0.24515523       0.12358540       0.29556036
C       26.22196036      -5.69139598      13.90841621       0.28393696      -1.31160954       0.62769268      -2.52910471      -0.68172222      -1.32679176
C       25.05817324      -4.98265775      14.68507371       0.82763290       0.27009047       0.22339799       2.61299229      -1.92151320       1.64368021
O       24.39963962      -4.05571853      14.18593480       0.82287801       0.44204977      -0.88190374      -0.62967342       1.10252190      -0.97646016
O       24.92755082      -5.36947825      15.89593290      -1.27875127      -0.01001247       0.56215418      -0.24101359       0.16656536      -0.44329572
H       28.62176683       9.18160398      11.56949446       0.08288983      -0.20518432      -0.06842839      -0.42837125      -0.38028312      -0.38096189
H       27.19926859      -5.61992790      14.34546137       0.02994869      -0.12045282       0.12468853       0.31592780       0.30179930       0.40695792
H       26.20087354      -5.32113690      12.86147757      -0.05069399      -0.27069215      -0.09274267       0.33762020      -0.24339840       0.61868799
H       25.93095827      -6.79406168      13.86694470      -0.20716900       0.16989170       0.13252350       0.45238006       1.38057911       0.06158858
C       11.17275006       4.57817774      -4.72978637      -0.33045905       0.55537221       0.33184625      -1.47936487       0.11540482       0.35706317
C       11.88404503       3.45233488      -5.36083526       0.62550683       0.61285293      -0.07700326       0.66415495      -2.23706698      -1.35182929
O       11.36487201       2.21719893      -5.10544694       0.12717017      -1.20136330      -0.72648887      -0.79424936       1.91463399       1.11237431
O       12.85788887       3.56599491      -6.12490855      -0.21795974       1.36591105       0.48176246      -0.75762767       0.35699427       1.00260842
H        9.95120862      17.13891408      -0.12833372      -0.04463430      -0.03134404      -0.27107158       0.23244447      -0.35409659       0.07504588
H       10.07247735       4.29214713      -4.45669995      -0.28241025      -0.03534518      -0.33217222       1.98595643       0.72048241      -0.72064114
H       11.28675907       5.44256936      -5.42033580      -0.26701508       0.15381230       0.01328074      -0.49503800      -0.47278696       0.60739809
H       11.68291622       4.82972388      -3.79031977      -0.04832001       0.05296080       0.14461382      -0.07395387       0.05014274      -0.08648473
C       22.70683830      37.67146446      16.76947080       0.16447204       1.02118794      -0.53893505       1.49449325       0.15521969       0.14835939
C       23.02932673      36.83772154      15.56601652       0.56720026      -0.94817277       0.50913497       1.22971213      -0.09378392       0.83635420
O       23.36010000      35.63287947      16.01761522       1.10717808       0.11878762       1.29667047       0.27612686      -0.61563742      -1.13732147
O       23.12074017      37.25330469      14.40457600      -0.61104193      -0.48486819      -0.20611921      -0.35584974      -0.34104574       0.53684831
H       20.88134530      27.51273509      10.93295615      -0.29488748       0.26759455      -0.16972860       0.95955515       0.60140705      -0.52676660
H       23.20384930      38.64588105      16.71137958       0.35065285       0.06295100      -0.11321007      -0.05480787      -0.22557405       0.02165166
H       22.98358871      17.97060632      17.69989575      -0.00948446       0.07423967       0.10781497      -0.33182904       0.49601775      -0.76890683
H       21.67861203      18.68986848      16.71390926      -0.03892144       0.03089545      -0.12088241      -1.84384060       0.46313235       0.36270905
C       26.70821828       6.94991453      25.88078354      -0.41239240       0.68543321       0.74399449       1.07663870      -0.31351623       1.41845965
C       28.10214562       6.52978115      25.50420664       0.44699970       0.44704809      -0.07061003      -0.07353963       0.35694471       1.17712820
O       28.46305658       6.63262515      24.34133094      -0.53657662       1.66940559       0.28077343       0.57962024      -0.43231735      -0.18310004
O       28.88698143       6.15022097      26.55210880       0.73481934       0.36492762       0.91982121      -1.24426425      -0.33389264      -0.99460655
H       11.27675190       2.98820889      29.54581027      -0.10622718       0.27754865       0.15948163       0.39639455       0.91668862       0.01809311
H       26.49966431       6.86418172      26.96691470      -0.16668554      -0.31658396      -0.04939737       0.04190370       0.07520887      -0.74113119
H       25.98915624       6.40445803      25.31868461      -0.06385281       0.11893972       0.08406086      -0.57910907      -0.58874416      -0.42700055
H       26.65358398       7.96121630      25.54777018       0.10784190       0.10084102       0.21716137      -0.46063399       0.95199782      -0.00052111
C       -6.95857403      -8.29345817      13.83255907       0.29708175      -0.47166034      -0.20523570      -0.78785652      -1.44666767       1.82721174
C       -7.15172219      -7.10859739      13.02022437      -0.35871151      -0.57283041      -0.76990014      -1.22993767       1.29871154      -0.01611745
O       -8.29959578      -6.38470644      13.37250629      -1.30265708      -0.19196220      -0.90939065       1.74171317      -1.81948853      -0.14472234
O       -6.35534740      -6.81853666      12.14320954       0.24039703      -0.51007974      -0.15677177      -0.34214145       0.69924200      -0.43415773
H       -8.38336185      -5.52709736      12.86176488       0.03564040      -0.00213085       0.00668962       0.37281692       0.62569022      -0.43529102
H       -7.74365833      -9.03817257      13.64982559      -0.10216928       0.14912507       0.16984113      -0.51850426       0.44395494       0.23293780
H       -6.95705831      -8.01466555      14.91204622       0.17190964      -0.10089273       0.00005005      -0.15601286      -0.32993481      -0.64883238
H       -6.10270774      -8.90801651      13.61751819       0.21642955       0.00183015      -0.09903096       0.82475704       0.51407301      -0.27704945
C       25.72153247      12.54898820       2.06430759       0.04068631       0.03081818      -1.02841795      -1.14311719       0.20167695       3.04279470
C       24.28082100      12.09324943       2.10272026      -0.28719605      -0.63171330       0.25839106       0.85378951       0.91124827       2.94850445
O       23.77139208      11.75857124       1.00048725       0.06934186       0.03920267      -1.05707210      -2.42307997      -0.86624771      -2.55422258
O       23.60778180      12.03252812       3.14645065       0.33677328       0.33571364      -1.43442928       0.66798365       0.26873729      -0.36529851
H       12.22451329       2.74003545       1.91632466       0.16080004      -0.17760619      -0.23107042      -0.12396508      -0.57083637      -0.17680806
H       26.16287730      12.25476765       3.04792456      -0.08732678       0.49343352       0.13447792      -0.01203462       0.08803185      -0.89748436
H       25.82120563      13.61734739       1.99525610       0.36059469      -0.23962952      -0.03980677      -0.14796858       0.57258356      -0.11863550
H       26.18138269      12.11385040       1.25607083      -0.03582068      -0.06817485      -0.16750545       1.48664069      -1.11908674      -1.77765059
C        4.93837682       8.21527416      10.24290932      -0.73399999       0.37560394       0.76206183       0.31981897       0.71227610      -0.55335081
C        3.67402484       7.93380712      10.94608615       0.16198297      -0.45326153       0.30875115      -1.15992463       1.21050930       0.86195588
O        2.67035382       8.76578675      10.51594925      -0.36812777      -0.81191361      -0.07404520      -0.68194771      -2.19285727       1.12258399
O       22.71181923       7.13408861      11.88882688       1.53621937       0.07626980       0.60415237      -0.21578717       0.57698840      -1.00857019
H       -0.80104567      -1.49572955       4.63671878      -0.01190061       0.04536277      -0.06501863      -0.43906224      -0.04213054       0.15823653
H        5.22725449       9.29008924      10.35015407      -0.07265813      -0.00105595      -0.02438122      -0.41434118      -0.79376221      -0.13760880
H        4.78929623       7.99777114       9.17407694       0.29148660       0.17166908       0.10084380       0.25312981       0.15991876       0.24909940
H        5.72454150       7.61339225      10.65562962      -0.00767511       0.21426651      -0.15080026       0.36215985      -0.34826687       0.03546828
C      -16.74926220      -0.29991441      -7.62215018       0.23385790      -0.47358163      -0.01051415      -1.99608350      -1.66767168      -1.50847626
C      -15.77322258       0.52558353      -8.40325352      -1.07975059      -0.56005916      -0.53289557      -0.81957591       1.39443994       2.25099611
O      -15.36257675       0.19273886      -9.49911479      -0.32886577       0.27402966       0.44743530       0.88635838      -0.38736612      -1.13244390
O      -15.52430930      20.83431970      -7.77290530      -0.19680560      -0.45380654       1.19229811       0.35797822      -1.29333496      -1.02515936
H      -16.56962551      21.07105121      -7.15892706      -0.08052626      -0.21833886       0.16055588       0.45814174       0.62325317      -0.42362982
H      -17.75469740       0.24205094      -7.56941706      -0.08861313      -0.38649168       0.16636663       1.23479962      -0.95844996      -0.09617484
H      -16.44255881      -0.54575147      -6.63668567      -0.08729939       0.08899185      -0.07620504       0.61516201       0.37318808       1.06214666
H      -16.87644142      -1.34132626      -8.07733030       0.10684994      -0.03014888      -0.11475728      -0.12957813       1.53632534       0.13118280
C        0.81969125       3.25101741       2.47423723       0.22458010      -0.02547674       0.68163254      -1.01710224       0.01903029      -1.47717428
C       18.76809514       4.11106639       2.78177760       0.20697117      -0.43387856      -0.22413770       0.41029477      -0.28166845       2.06661558
O       18.45001998       4.97380196       1.85925188      -0.17006888       0.46985455      -0.34694462      -0.30170035       1.03241801      -1.41809416
O       -0.94727069       4.10814295       3.87964454       0.69207144       0.07342792      -0.52615321       0.07111889      -0.38681769      -0.15956360
H       14.25425766       7.73684847     -10.05758036       0.18321433       0.08271252      -0.31224896      -0.18420541      -0.11486560       0.07592574
H        1.70456019       3.76318094       2.76218095       0.19681842      -0.03527643       0.05633694       0.83188391       0.61929178       0.30606964
H        0.87503478       3.13904987       1.37873263       0.18785430      -0.25264162      -0.07675629       0.09517458      -0.14026082       0.46600622
H        0.81236362       2.29228942       2.97180064       0.09856337       0.13385044      -0.24657519      -0.24950327      -0.06737866       0.12327176
C       31.20814062      26.86437722      -2.26773777       0.14538472      -0.64435853      -0.43529837      -1.33461773       0.84323937       0.74674428
C       29.88332890      26.59342409      -1.58163297      -0.08968087       0.29990222       1.10686258      -2.07864237      -2.14259458      -1.01899219
O       29.87236857      26.89071449      -0.25604165      -0.02131650      -0.26690130       0.88954137       1.61204934       0.66372532      -1.38936138
O       28.90208565      26.06661194      -2.18486670       0.35934661       0.81695610      -0.58260813       2.20449138       1.55622959       1.56923532
H       17.77766291       5.65004637       2.21415682      -0.18492243      -0.22117770       0.21724815       0.18498927      -0.26055163       0.30951536
H       31.94781534      27.08436594      -1.52453866       0.14153520       0.15110770      -0.13180963       0.52961010       0.13415433       0.20060253
H       31.01415815      27.74293676      -2.87716657       0.40173372       0.04461569       0.06704740       0.23896448       0.33502173      -0.09774237
H       31.51565875      26.10225512      -2.94768299       0.20912221       0.32754459      -0.00818751      -0.02824608      -0.73977751      -0.18225364
C       -6.49706735      -5.86003006       8.80739364       0.42728189      -0.43959191       0.34272529       0.58788776      -0.63386989      -1.02021635
C       -5.25985578      -5.06204896       8.71315191       0.32767415      -0.86890898       0.23167319       1.67990351       0.73172361       0.27531624
O       -4.33178216      -5.40506198     -11.20682132      -0.83788731       1.39841460       0.39745529      -0.71511996       0.64441925       1.08275008
O       -5.15129558      -3.96198948      -9.65530817      -1.23210664       1.06523750      -0.17704124       2.06725502      -1.46108127      -2.12666130
H       14.99996181       0.13578603      11.91563099       0.22404636      -0.06106534      -0.17219958      -0.10954630       0.12777257      -0.46362066
H       -6.38045603      -6.55344459       7.95959351      -0.00641139       0.00908042      -0.19852010      -0.50929707      -0.20730160       0.65188384
H       -7.27746406      -5.15581261       8.58785770       0.02411158      -0.10787145      -0.14800361      -0.83695030      -0.00960702       0.12502097
H       -6.63397491      -6.31748412       9.79905505      -0.04935877      -0.07241839      -0.26209647      -0.02609700       0.13558042      -0.42199999
C       -6.11321277      -3.60354158      12.12975850       0.75904957       0.00219314      -0.17607362       0.47568238      -1.29912949       0.16448122
C       -7.45351862      -3.80763448      11.46085037       0.41383433       0.17883677       0.37482715       1.26783669      -0.62328959      -0.09605449
O       -8.44531819      -4.11357098      12.16774150       0.21706576      -0.09944090       0.31117153      -0.73879516       0.08623266       0.46589106
O       -7.47218418      -3.71888159      10.20998410      -0.31137518      -0.02665329       0.70148807      -0.74905986       0.74534249      -1.11074328
H       -6.06278751      -3.77345770       9.82411825       0.07982010      -0.15967634       0.47723822      -1.68711579       0.25672966       0.68943584
H       -5.34970710      -3.00718252      11.61559183       0.08150001       0.09695805      -0.31749538      -0.56392866      -0.29327890      -0.26643014
H       -5.69394593      -4.61294687      12.42435862       0.03412137      -0.05786542      -0.19480862      -0.50241268       1.25348628      -0.19330406
H       -6.41571735      -3.04811876      12.96133712      -0.10341687       0.04176059      -0.02133852       0.22033203       0.62655163       1.87877941
C       -7.60042096       3.40739759      18.66112667      -0.16186829      -0.16687617       0.21561805       0.77303886      -0.47891444       1.35012472
C       -6.20059454       3.79532878      19.19796436       0.51775698      -0.94751804      -0.06357396      -1.29476368      -0.91956520      -1.58054566
O       -5.88391788      22.73501796      20.38490432       0.80063309      -0.79543781       1.02598695       0.30359277       0.39143401       0.75175697
O       -5.37805975       4.19199965      18.28649338      -0.03451600       0.01963627       0.82344883      -0.04517245       0.59984559       0.27404445
H       18.87500355      12.47286463       8.53266447      -0.05539236       0.08355299       0.36998453      -0.17043120      -0.57377833       0.59413803
H       -7.72832766      21.45236941      18.78023855      -0.08304114       0.04098823       0.20858990       0.50562251       0.76875639      -1.01049066
H       -7.68637045       3.82898033      17.66232545      -0.10368361      -0.13600895      -0.04305116      -0.44011995      -0.48951906       0.03386285
H       -8.39596721       3.68692026      19.35270645       0.12532011       0.09193963      -0.42834978       0.09767412       0.80411994      -0.08000951
C        6.81689119      15.84303722      -1.15054555      -0.95625932       0.03278646       0.59819856       1.67980051      -0.75025845       0.14273113
C        6.12726768      15.95764222       0.17863918       0.30158558      -0.26776957       0.74411390       0.83288175      -1.02310359      -0.83825088
O        4.91810768      15.86140721      19.37548875       0.57081277      -0.23601134      -0.49112390      -1.33593082       0.53791475       0.46329525
O        6.82893758      16.01739979       1.31493526      -0.55868209       0.09927945       0.94245484       0.27466178       0.21547644       0.09762314
H       11.87454802       1.42699704      -5.46714596       0.14860258      -0.02386178      -0.18345732       0.95851249      -0.30917087      -0.60831583
H        6.58737277      16.65423776      -1.79852039      -0.08806287      -0.06064256       0.15615770      -0.20183773       1.18642712      -0.22751009
H        6.47980928      15.01023676      17.37039811       0.02115444      -0.31657676       0.12863781      -0.24366885      -0.15319368       0.74335837
H        7.91725146      15.73339650      -1.06752535      -0.04551744      -0.24156802      -0.03996935      -0.62146395       0.31064039       0.09623653
C        1.67326085      31.62168771       5.20659852      -0.90745266      -1.44719615      -0.34400668      -0.18662806       1.01214373      -0.03317842
C        1.22426114      31.57837083       6.63214115       0.35746257       0.00232992      -0.90290472       1.48398638      -1.01405776      -0.64347935
O        0.11608487      32.08729476       6.88203704      -0.24288252      -0.22480933      -1.25300471      -0.48314333       0.00321639       1.49069476
O        2.02033371      30.96006312       7.47047167       0.07445295      -0.31180850      -0.63003751      -0.86223722       0.67354417      -0.04535139
H        3.10524480      30.43857842       6.86764871      -0.12603978      -0.03911519      -0.02513221       0.06912333      -0.19878776      -1.00029814
H        1.88355465      30.67182876       4.82673651      -0.03969847       0.15128620      -0.01230621      -0.35247719      -1.97832251      -0.44925159
H        2.69748620      31.97976445       5.06021657      -0.18414121       0.18728357       0.09604905      -0.37052566       1.00730479       0.09386972
H        0.86066991      32.06635698       4.61552984      -0.05500114       0.13834956      -0.16386115       0.78132153       0.16731115      -0.11356601
C       14.51040038       3.53212795       4.52541776       0.28133561       0.07806669       0.48068888       0.92248243       1.57972097       0.52474642
N       13.66857999       4.42152241       5.30994074       0.53117209       0.21489323      -0.02660342       0.47344840       0.25198519       0.17601395
C       13.94423776       5.63062710       5.88380545       0.15438197      -0.13850214       0.82523053       1.26503015       0.33311561      -0.34649667
C       12.85155432       6.03881871       6.57375876      -0.24259306       0.24257439      -0.48869291       0.90070027      -0.58302122      -0.29432738
N       11.90594903       5.05663640       6.48709002       0.87508844      -0.20099410       0.75885721      -0.63905430      -0.24085003      -0.03621905
C       12.43614301       4.12847131       5.69774287       0.13910063      -0.30190713       0.04653635      -2.37617874      -2.05975485      -0.31752408
H       15.54386767       3.58847308       4.89762096       0.00389403      -0.25595009       0.06430123      -0.10401028       0.51986063      -0.49783435
H       14.39068787       3.79571933       3.47715272      -0.04121899       0.15741865      -0.25363702       0.25025100      -0.43682802       0.00274432
H       14.25469739       2.55211982       4.78604911      -0.02700632       0.00239520      -0.06174430      -0.85339022      -1.60030210      -0.16953553
H       14.93116622       6.03038798       5.90270385      -0.30078392      -0.03959782      -0.08556819       0.53880829       0.13420421      -0.25066876
H       12.87903944       6.94209459       7.13574435      -0.17371797       0.14609142      -0.24097757      -0.81309497       0.32934153       0.49742603
H       11.92230011       3.19674682       5.29717933      -0.15243105      -0.02684885       0.02636010       0.64208019       1.49236131       0.72496337
C      -13.60487102      16.97060362      49.99184535       0.44480853      -0.50580558      -0.43289578      -1.13767505       1.26757264       1.27689612
N      -12.50120697      17.09789738      49.07797434      -0.03788910       0.72786955      -0.04583489      -1.31245446      -0.01795390       1.67101920
C      -11.30400477      16.51568058      49.28965856       0.61482856       0.03407985       0.21168495      -0.00648594      -0.20300934       0.28788057
C      -10.63419905      16.72363939      48.15202443      -0.06449716      -0.63087300      -0.35379490       2.29300070      -0.13415557      -1.61036444
N      -11.38589316      17.40645673      47.23397938       0.22534266       0.01314657       1.35788944       0.88203621       0.21712494      -0.23697515
C      -12.49872504      17.64624247      47.86673303      -0.59330451       0.02955016      -0.40442957      -1.54892921       0.34855449      -0.78579444
H      -14.52308473      -2.32279666      49.44410592      -0.03880994       0.27847070      -0.23372400      -0.26287425       0.08475199      -0.42869726
H      -13.77181613      -1.25585269      50.65083474      -0.09461581       0.15033606      -0.35015143       0.42835882      -1.22779500      -0.98344576
H      -13.53832616      16.10388371      50.65661507       0.05896702      -0.41264119       0.15529646       0.47995433       0.22445634      -0.22866854
H      -11.08408622      16.01817582      50.19490243      -0.03433015       0.31755861       0.04234472       0.36109632      -0.39358997       0.48219368
H       -9.60329748      16.53826247      47.92639052      -0.01387281      -0.28098542       0.09983035       0.28384489      -0.30315799       0.12738529
H      -13.36302808      18.10348278      47.43308830      -0.09163758       0.02050938      -0.06866918      -0.37623137       0.28939289       0.05750717
C       25.73928957      21.20215343       9.25177990      -0.48470993       1.30685392       0.19906180       1.25253844      -0.05317144       0.44223285
N       26.90814604      21.39815406      10.19594029      -0.64428202      -0.02239539       0.57807431      -0.69412547       0.53167081       0.06060755
C       27.06411833      20.91852311      11.52173731      -0.30640467       0.90709499      -0.23048622      -0.15535736       0.32231373      -2.12366724
C       28.28003356      21.37980623      11.92610918       0.92944239       0.28627076      -0.99911833      -0.04963672      -0.10399602       0.04235709
N       28.84843075      22.16913193      10.94732752       0.01073340       0.13850722      -0.87029945       0.30213931       0.05888805      -0.32600352
C       28.00777157      22.18569165       9.91894323       0.31002737       0.07916319       0.16472911      -1.49365330      -1.78176379       1.75967169
H       24.93794688      20.65954467       9.71234297       0.09521272      -0.05450541      -0.06359871      -0.07931699      -0.60075074       0.63284713
H       26.10440240      20.63595636       8.38204049       0.12444277       0.16544642      -0.12560778      -0.16907276       0.34608567       0.20884269
H       25.24930267      22.13005366       8.96202419       0.13516861      -0.35970037       0.04779786       0.61612695       0.37003270      -0.06327324
H       26.35540132      20.22506087      11.93316042      -0.02926244       0.04654856      -0.00967069      -0.03737665      -0.01816590       0.10551310
H       28.82179492      21.02590510      12.79508223       0.01332284       0.22158513       0.05696480      -0.03405125       0.56517929      -0.22902654
H       28.09431186      22.63561675       8.97547796      -0.00743776       0.02495833       0.17927057       0.41096979       0.66662276      -0.87557489
C       15.92210931      30.59651646       6.06918933       0.37176787      -0.58608882       1.09391495       0.69913030      -0.11219722      -1.18032765
N       15.86324013      29.61965049       7.11770541      -0.90208237       0.06669583       1.13901572       0.03991244      -1.08326542      -1.25508070
C       16.96397935      28.89029661       7.48789327       0.74370324       0.85580363       0.10974754       0.87632418       0.90542746       1.19188118
C       16.46568622      27.88832858       8.29737824      -1.00481685       0.30326388       0.30017918       0.90753007       0.42015517      -1.14849031
N       15.11910456      27.86162907       8.21967022       0.10064935       0.72865185      -0.17972716      -1.39470959       0.49628589      -0.76068956
C       14.76709115      28.89262442       7.41929581      -1.19080682      -0.73931796      -1.17045307      -0.17252305      -0.06544381       0.82027453
H       16.22941931      31.55854498       6.44764348       0.14420551      -0.06888654       0.13075685       0.06151129       0.32303196       0.07334850
H       14.96712142      30.67059253       5.58275428       0.09690666      -0.26964158       0.05263086      -0.49936390       0.13669713      -0.02502897
H       16.63015388      30.23275359       5.28945082       0.17809361       0.11251380      -0.01826434      -0.31277916       0.37397918       0.61307442
H       17.97148344      29.29354462       7.24032987      -0.03248287       0.02406132       0.17547578      -0.94588149      -0.76575559       0.26553291
H       16.99789460      27.20461559       8.89333645       0.03021013      -0.00099359      -0.09416343       0.57102573      -0.65858787       0.71749574
H       13.82031229      29.11027357       6.91541348      -0.19634440      -0.05122561       0.30666568       0.32040137      -0.29671454       0.49304152
C       12.07685412      -1.64823989       7.70305387       0.13637645       0.40311323       0.54440276      -1.92318261       1.94618320       1.34491038
N       13.27331268      -0.91850323       7.42723324       0.14744981       0.35475457       0.49219763      -0.56003743       0.45893618      -0.66941690
C       13.63918053      -0.54921017       6.14830915       0.34676231       0.76410353      -0.00584707       0.97654170       0.39251280       0.44727778
C       14.92049105      -0.07859500       6.25325209       0.72564559       0.15371929       0.61793251       0.29080117      -0.64250970      -0.08754724
N       15.31601489      -0.25316743       7.56209341      -0.07171859      -0.90401630       0.93380186       2.06978512       1.84029841      -0.33557761
C       14.30391079      -0.63888752       8.26617074       0.48022219      -0.79092199       0.35181637      -1.03613245      -2.00407815       1.28500497
H       11.15002909      -1.10927426       7.39489334       0.38274564       0.00249292       0.03236490       0.87439549      -0.12167674      -0.21432725
H       11.90557035      -1.74031592       8.77494092       0.15575705      -0.02758330      -0.10910175       0.50073522      -0.30716082       0.08779630
H       12.06948477      -2.57711495       7.24353738      -0.06999558       0.11990858       0.19486559       0.15239082      -1.85246658      -0.74027491
H       13.07088282      -0.68728541       5.26016125      -0.39173151      -0.24388022      -0.10621307      -0.71001697      -0.08251590      -0.12706715
H       15.61318626       0.26838879       5.47793457      -0.17769629       0.01231943      -0.13451446      -0.60301596      -0.11623792       0.60376537
H       14.29940496      -0.93241267       9.35254366      -0.16307924      -0.07864377       0.06819426      -0.07289736       0.45007011      -1.34419298
C       15.38713714      -8.01095591      10.93246737      -0.29302386      -0.53434901      -0.18463302      -1.77803898      -0.67673433       0.54946327