640
Lattice="19.152215 0.0 0.0 0.0 19.152215 0.0 0.0 0.0 19.152215" Properties=species:S:1:pos:R:3:momenta:R:3:forces:R:3 energy=-80021.265625 stress="-0.0011675264686346054 0.00026206954498775303 0.0011629847576841712 0.00026206954498775303 0.002599452855065465 -0.0006683316314592957 0.0011629847576841712 -0.0006683316314592957 0.00595051608979702" pbc="T T T"
C        0.70151852      11.75801279       2.88012543      -0.04903537       0.81797382      -0.89856351       2.18153524      -1.18247747       1.45715237
C        0.50159313      10.22706632       3.10001210      -0.65993369      -0.35050108      -0.33459387      -0.60810214       3.47816396      -0.04446495
O       -0.13724543       9.80076214       4.04312614      -0.47940792       1.09008815       1.13535173      -0.54638457      -0.86041927       0.36112499
O        1.10297080       9.49814365       2.21379695      -1.35279118      -0.32632801       0.79543668      -0.00494188      -1.64387226       0.05887245
H        1.97364011       9.96319311       1.94975431      -0.13875361      -0.12800932      -0.13477880       0.55666077      -0.02005002      -0.88412845
H        1.53522387      12.00722124       3.62315141       0.38310152      -0.11365851       0.17731491      -0.81523073      -0.06942025      -0.79212439
H       -0.11938181      12.37723368       3.18985055      -0.12632899      -0.21844248      -0.08863289      -0.46652722       0.05677569      -0.25779587
H        1.16644167      11.97743013       1.91292574      -0.15970316      -0.32494686       0.00202149      -0.60611087       0.03810844       0.09360955
C       23.52197844       1.64608656      15.70495249      -0.37252596       0.32018777       0.45360722       1.81138420       0.52757204       0.54383463
C       23.68497991       0.17001025      15.58207002       0.28372324      -0.82591502       0.70618455       0.14115584       0.31419963      -0.34215921
O       24.62847571      -0.34292388      14.99223311      -0.68815862       0.77967201      -0.11337335       1.06500721      -0.31580752      -0.47704148
O       22.76230758      -0.54001723      16.16340740       1.41845951      -0.64840049       1.16332910      -0.79234922      -0.22022581       1.45546699
H       27.64359328      10.00307262       9.52613633       0.20597090      -0.27121832      -0.23921294       0.44447929      -0.08159608       0.32682168
H       22.67862825       2.10935948      15.23034877      -0.12336918       0.25810905       0.09889761      -0.78082776      -0.26741570      -0.19456202
H       24.42113895       2.10613493      15.25585879      -0.16785117       0.31159502      -0.35058932      -0.39732793      -0.26959988       0.23960476
H       23.54357418       1.90644778      16.78023362      -0.15937596       0.16707239      -0.02299486      -0.26490971      -0.02139334      -0.42262748
C       11.31154514       3.56474695      -2.47906581      -0.22588234      -0.09134559      -0.22017581      -1.15234292      -0.63176709       0.32934630
C       10.91821228       2.56467366      -3.53476161       0.30406571      -0.93740897      -0.05153096      -1.15770149      -0.10694557       1.32735264
O       10.40842532       1.39570362      -3.03427230      -0.11314248       0.53530760      -0.24056715       0.62101930       0.53887618      -0.62053281
O       10.92856839       2.83986862      -4.71051424       0.43333042       0.14756964      -0.11442842       0.15167774      -0.07934941      -1.51488483
H        9.75404936      12.80524236       0.80556209       0.24676594      -0.27979090       0.15476045      -0.19420430       0.95928615      -0.17248771
H       11.17919911       4.63347963      -2.82655679       0.09871332       0.12082677       0.06353193       0.46440750      -1.26365232       0.29091114
H       12.33886169       3.26839495      -2.21932875      -0.02467276      -0.13330316      -0.04999541      -0.17438355       0.55348313       0.35069683
H       10.60054129       3.31653697      -1.64601713      -0.13303772      -0.10499826      -0.11030047       1.02086830       0.58434278      -0.33116624
C       26.81059473      36.01817454      17.32899120       0.04698706      -0.83577964      -0.09941738      -0.44345134       0.97450697       0.04493998
C       26.67004014      35.05965158      16.17630898       0.34871675       0.32296151       0.82184386       0.12622601      -2.05644178      -0.21363997
O       26.19996884      35.47079947      14.98188856       0.57969770       0.20065665      -0.66256533      -0.30358976       2.38294911       0.60960692
O       26.85098391      33.83408597      16.26998763      -0.35624793      -0.62047120       0.11464926       0.33514106       1.48422933       0.38229412
H       17.51386300      28.74661430      13.68162084      -0.16725079      -0.08147540      -0.12814179      -0.54444784      -0.47055519      -0.87847960
H       27.50316444      36.91668191      17.25388095       0.01858571      -0.06478616       0.08439733      -0.43743116      -1.48439837      -0.45426312
H       27.01578184      16.26845625      18.23602265      -0.06001908       0.21382998      -0.05174978      -0.04500805       0.40414959      -0.48667634
H       25.81308708      17.33969681      17.42210717      -0.14787154       0.10248915       0.17149415       0.27790990      -0.22578655       0.35402924
C       27.10748596       6.29782485      25.66844651       0.15792440       0.19433190       0.40438353       0.03410320       0.06472673       0.98274094
C       28.32260858       5.85537162      24.93062071      -0.51009772       0.16615430      -0.26778997       1.93025923       0.76372695       0.09681177
O       28.34207039       5.30729302      23.82803829       0.82564774      -0.22376144      -1.01052405      -0.07220787       0.31787238       1.07125604
O       29.47670109       6.23620330      25.60036590       0.23630261      -0.12177213       0.17817432      -1.80450165      -0.32915333      -0.55372727
H       16.30247840       3.56004462      28.84239606      -0.05847425      -0.16597352       0.04620924      -0.39889264      -0.02064162      -0.21548691
H       26.29525833       5.89352939      25.08446846      -0.00387581       0.08821618       0.22393241      -0.59125632      -0.54440194       0.53672212
H       26.94562995       7.38200136      25.53310355      -0.29676815       0.18047097       0.05314786       0.52961612      -0.22493052       0.25437248
H       27.15229872       6.07192970      26.81044872      -0.08113082      -0.19997154      -0.14271616      -0.27864161       0.13299121      -2.32670903
C       -5.83120479      -4.11629915      15.97668323       0.56271813       0.06914975      -0.03813380       0.22517650       0.09633119      -0.41894266
C       -5.65376309      -5.26233050      15.00722593      -0.18190959       0.03618316      -0.05573712      -0.10935800      -1.22457516      -0.38284329
O       -6.61666748      -5.52843990      14.16351882      -0.58959213      -0.40109850       0.67582562       0.99014306       0.24589509       1.74550533
O       -4.56290904      -5.94894428      15.08091476       0.32103955      -0.61927383       1.01523837      -1.21224940       0.50837958      -0.25891215
H       -6.32135082      -5.26609195      12.91306173      -0.09921940       0.25958249       0.27553968      -0.34598535      -0.07251524       0.91981578
H       -5.67891393      -3.16296787      15.42762059       0.10724540       0.26832226      -0.19071838      -0.26978707      -0.41687852       0.25595176
H       -4.97780216      -4.21607543      16.64678376      -0.10892227      -0.20930177      -0.13299439      -0.36695588       0.25354230       0.41756868
H       -6.82597668      -4.07910631      16.47924334       0.34085249      -0.00906195       0.07761272       0.81247169      -0.03055333      -0.31722784
C       21.66634118       9.12164259      -0.47879998      -1.30977586      -0.14177858       0.21783259      -0.76765299       1.11574662      -1.92820859
C       22.61299159      10.14109786       0.15226612      -0.44825899      -0.23780987      -0.22371448      -1.78449035      -1.33596802       0.82341141
O       23.56928552      10.65996467      -0.49750699       0.55826502       1.64984932       0.64069843       0.20824802       0.40820211      -0.37583736
O       22.36795903      10.39047346       1.36927442      -0.30042929       0.93278207      -0.10273705       0.90704221       0.61310625      -0.41350698
H       12.22968000       1.34596495       2.40056732       0.26029092      -0.17026300       0.14980797      -0.34174091       1.07292867       0.91720760
H       21.90468527       8.10729223      -0.24308192       0.02257240      -0.16527430       0.30072172       0.54989129      -0.59584928       0.33715883
H       21.56915000       9.20967032      -1.59827598       0.37944199      -0.16738236      -0.16579285       0.63702714       0.02557805       0.85441840
H       20.62841562       9.29377034      -0.17159809       0.14017820       0.11490463      -0.40891333       0.33072183       0.09592945       0.36830238
C        1.62393810      10.76924081      14.35796001       0.21348351      -0.70648909       0.13959946      -0.50588936      -0.83845764       1.01951146
C        0.26300589      10.57391590      13.71533752       0.06474981       0.72768362      -0.73781724       0.71551234       0.83194548      -2.36490536
O        0.12041843      10.64424397      12.43463707      -1.41047618      -0.83121695       0.02879573       0.44686371      -0.36443961       1.29890227
O       18.45657111      10.36950919      14.50476927      -1.03749937       0.72418191       0.24580191      -1.25606334      -0.81169438       0.32631069
H       -2.05621008      -2.65393082       5.55499166      -0.03600015       0.19771044       0.02377370      -0.66936034       0.44610882      -0.19480848
H        2.33760281      11.31261360      13.75393112      -0.24568440      -0.11835046      -0.07545020      -0.03036600      -0.14949402      -0.49182764
H        2.01060013       9.71515822      14.60037276       0.22163802      -0.01911140       0.08281437      -0.34090006       1.67479968      -0.01699106
H        1.40288484      11.37052165      15.27772934      -0.03223648      -0.31865434       0.13991833       0.62017524      -0.84862411      -0.45867038
C      -18.43400599       2.60769719      -7.23205696      -0.63890488      -0.12431692      -0.32734937      -0.65315914       0.38962275       0.95830429
C      -18.50293293       2.58360972      -5.67490912       0.74105119       0.34483013       0.48329004       0.26368129      -0.15208624      -1.06485140
O      -17.44159528       2.33844991      -5.04806757       0.56513906       0.28297489      -0.73497683      -0.58149910       0.40768677      -0.14202988
O      -19.66943492      21.95274683      -5.17380125       0.21428879       0.33819029      -0.55804699       0.41841638      -0.02102861      -0.25968033
H      -19.60513641      22.06912572      -3.86135010      -0.04892499       0.09925253      -0.12717550      -0.44877034      -0.16562995      -0.14409965
H      -18.28593239       1.56799080      -7.57125861       0.15754520      -0.02930807      -0.06492673      -0.30723810       0.50660324      -0.16555914
H      -17.52915473       3.15470902      -7.47965419      -0.14820928       0.19821702       0.21927201       0.05057072       0.12657124      -0.19892481
H      -19.33859413       3.12644351      -7.66015110      -0.31603451      -0.00388413       0.06720920       0.92820859      -0.88206315       0.35906252
C       -3.37035649       7.11268162       3.53619929      -0.34270860       0.24703610       0.15990496      -1.48201036       1.00193095       0.76964539
C       15.60094560       6.24723932       2.33435466       0.09655811      -0.20435279       0.76649906      -0.56015360      -0.44685733      -0.76194113
O       15.00046417       6.82681312       1.29187561      -0.66245181       0.14765020      -0.36424452       0.74816513      -0.32836950       0.54160076
O       -3.07432019       5.10114297       2.29631284       0.19653677      -0.54265548      -0.55571055      -0.08961263       0.40784544       0.29458070
H       15.35548051       8.13379241     -10.15258237      -0.18067137      -0.05699277      -0.05694901      -0.59197056       0.25088519      -0.55305171
H       -2.31169274       7.26465070       3.52280270      -0.36546156       0.25899398      -0.26402075       0.71979350       0.44785178       0.50162548
H       -3.68614833       6.70512128       4.55026153       0.14885201      -0.06913974      -0.00039831       0.43888056       0.04740006      -1.50110340
H       -3.88860823       8.10225570       3.39981967      -0.08601914      -0.19783350       0.02497043       0.58155370      -0.93327457       0.10814429
C       26.65888774      20.99945863      -1.04324693      -0.20616787      -0.61626442      -0.03291610       1.68591297      -1.18041170      -1.71705580
C       26.52310654      22.39870664      -0.65212099       0.16555729       0.35496444      -0.24186761      -0.81635207       1.18991864       1.73709714
O       27.60667809      23.15003901      -0.79278773      -0.50779361       0.37004445       0.56624355       0.00885212      -0.28807497      -0.61966115
O       25.48489403      22.81362439      -0.09291451      -0.54357498      -0.92892539      -0.70517913       0.77120394      -0.15939069      -0.71412253
H       15.16674803       6.11340419       0.36199679      -0.21338878       0.13555290       0.07302384      -0.76925856      -0.26247108       0.44519857
H       26.96982277      20.39455460      -0.16723737       0.08602707       0.22967931       0.07663418      -0.26813596       0.31616533      -0.42945352
H       27.47430557      20.86189660      -1.81616142       0.03378410      -0.06631809       0.17419189      -0.71280307       0.27459645       0.99636096
H       25.75432359      20.63137548      -1.52041643       0.17199456       0.00709228      -0.05307430      -0.21264137      -0.15952319       0.47582948
C       -4.86164899      -6.26985936       9.04410977       0.49416369      -0.32480438      -1.47472219      -0.52374822      -1.79912961       0.33785054
C       -6.11324375      -6.42727781       8.24266839      -0.45234920       0.98111594      -0.16725890      -0.65876281       0.94307691       0.18460768
O       -6.28141087      -7.20523366     -11.82341160       0.23121123      -0.99928736      -0.48302163       0.30927217      -0.86925793      -0.51943588
O       -7.12777570      -5.57190697     -10.62389153       0.02585915       0.20522302       0.10755972       1.29161966       0.04231465       0.39202845
H       12.17002532       0.26530343      13.36375395       0.09320174      -0.03576271      -0.32292570       0.15609756      -0.23486239       0.31312785
H       -4.13371006      -7.00839083       8.71738065       0.07060909      -0.06906226      -0.15645241       0.13789113       0.22458768      -0.11371383
H       -5.06137402      -6.45751957      10.09776501      -0.11345555      -0.09814592      -0.12261237      -0.21808535      -0.15621534       0.12096426
H       -4.50109368      -5.28463280       9.04947901      -0.07905989      -0.26700080      -0.15036014       0.58156741       1.39658785      -0.45648515
C       -7.21779523      -2.98825386      12.39710232      -0.00511536       0.04768495      -0.19816291       0.38984281       0.40840083      -0.94205904
C       -6.62259531      -3.98158391      11.41262471       0.98240936      -0.74886244       0.12935138      -0.13016209       1.37849379       0.29513091
O       -6.04629464      -5.01918992      11.94815003       0.43106036       0.55539132      -0.32427296       0.49460071      -0.02429318      -2.73101783
O       -6.60211250      -3.70994691      10.18632295       0.65437599      -0.23616333      -0.70913002       0.19901229      -0.58810210       0.79615235
H       -6.71417885      -4.86414102       9.13065756      -0.15007395       0.08918250       0.18427655      -0.86916769       0.03008699       0.15743083
H       -6.97872663      -1.95489234      12.03400139      -0.17892089       0.11651287      -0.09690344       0.47492063      -0.81465876       0.73422742
H       -6.86820609      -3.27413826      13.39787293       0.11749073       0.00792206       0.08527109      -0.39903846       0.68854630      -0.24926849
H       -8.29870264      -2.92292071      12.31481527      -0.13713093       0.05926408      -0.22385960      -0.37184858      -0.61176956       0.24788943
C       -4.33780483      -1.74813224      21.93259620      -0.00502073       0.51653185       1.35136624       1.94973159       1.28133833       1.03131580
C       -4.90459713      -0.35870439      22.13775182       0.32933189      -0.26178972       0.37863720      -2.08795309       0.58088982      -1.77609062
O       -6.12606535      18.91250203      21.77830050       0.52484398      -0.25320321       0.25741187       1.41859376       0.53931081       1.08121693
O       -4.19266328       0.71297129      22.46358762      -0.43455853      -0.03842475       0.17491766       0.14846623      -1.44315457      -0.42149383
H       18.31530703      11.86701297      11.94340804       0.15062636       0.12768293       0.01264987       0.58183587      -0.48917770       0.28067946
H       -3.52905819      17.19500430      22.70173221      -0.07326501      -0.04826236       0.00712536      -1.09255445      -0.02227464      -0.92575645
H       -3.85832661      -1.76805590      20.93089407      -0.26024489       0.02320736       0.04571760      -0.26109913      -0.12585513       0.41364458
H       -5.18633885      -2.40571097      21.95808401       0.13559050       0.27035739      -0.03800793      -0.04157127      -0.53870356      -0.00299386
C        4.21200789      13.41426179       2.22888092      -0.54152172      -1.17899034      -0.41773479       0.87439311       1.36229146      -0.72554314
C        4.85775173      13.09485641       3.55487134      -0.79649656       0.77131238       0.23628622      -1.47456431      -0.39866722      -0.06457753
O        4.49840994      12.15065717      23.40186288      -0.08053986      -1.56756762       0.19458595       0.48678005       0.18861961       0.16009808
O        5.80295753      13.95794373       3.95182460       0.19244643      -1.42792656       0.38879201       0.20283115      -0.25798821      -0.69441354
H       10.15255813       0.75310941      -3.79324885       0.15955425       0.11535999       0.01966257       0.30921480       0.57656056       0.67896938
H        3.61851568      14.36381989       2.22415429       0.05648794      -0.04031527      -0.19937204       0.61227161      -0.59541708       0.35437340
H        3.60211116      12.65534674      20.94308589       0.09224421       0.06342550       0.08899158      -0.39866763      -0.88898087       0.34499502
H        5.03647518      13.57355321       1.51576118       0.03892802       0.14916778       0.15222392      -0.43808198       0.21008340       0.22455129
C        3.43896577      31.67560906       7.93540177       0.44655637      -1.90890503       0.62005514      -1.24337840      -0.57344246       0.81103504
C        2.01548028      31.62643435       8.42138166       0.00763116       0.03381543       0.05648389       0.10514396       0.21069515      -0.52914155
O        1.34820713      32.66381225       8.43155835      -0.09845819      -0.43755743      -1.18631223      -0.72122800       0.76131952       0.33509904
O        1.46990600      30.47651972       8.68025824       0.07145303      -1.10747898       0.68800029       0.41160333      -0.46450484       0.58895123
H        2.11914794      29.43913149       8.71883565       0.21375598      -0.24519896      -0.06986190      -0.16241175      -0.27103150      -0.71765602
H        3.39967794      31.03188794       7.09009726      -0.15717927      -0.22381003      -0.03617848       0.96085882      -0.71196795      -0.71956342
H        4.11422949      31.40720017       8.72112815      -0.33373381      -0.14283234      -0.20340697       0.51344389      -0.66328681       0.21580824
H        3.68070539      32.65380999       7.64782440      -0.02880413      -0.06155767      -0.15299649       0.19146350       1.39789128      -0.51679188
C       15.43978784       3.04115795       5.43916433      -0.03300826      -0.34114423       0.30547283       0.91041875       1.02333260      -0.60824329
N       14.75683627       4.31134976       5.67876945       0.20173108       0.79702479      -0.46700725      -0.49269858      -0.18791118       0.57621980
C       14.87071011       5.10535155       6.77261299       0.19290100       0.52242521      -0.50582369      -1.53126216       0.84866130      -0.39882857
C       13.72856971       5.86177201       6.82517395      -0.43466630       1.20040574      -0.91443765       0.11588049      -0.75101542       0.28926682
N       12.87109209       5.48853055       5.82749818      -0.52825556      -0.94243895      -0.79578720      -0.00552859       1.01765776      -0.20312542
C       13.57698174       4.66222963       5.11636466       0.36191527       0.39318059      -0.40287924       0.20206082      -1.89724815      -0.85973620
H       15.84853869       2.60574430       6.35655287       0.14017544      -0.01061260      -0.07735192      -0.52311373       0.18130744      -0.11327821
H       16.29380185       3.35274092       4.82058268      -0.18835106      -0.22321876      -0.02535960      -0.04197752      -0.71558738      -0.01274195
H       14.79460485       2.37650558       4.87315683       0.06435346       0.03841386       0.14043663       0.05528209      -0.13487646       0.20603652
H       15.71893914       5.23386092       7.32391052      -0.03840714       0.16902383       0.06395034       2.09571958       0.04913309       1.26606560
H       13.50277729       6.65866102       7.47350694      -0.02301750       0.09472767      -0.03175578      -0.22757575       0.55267471       0.51455718
H       13.34732149       4.17777994       4.20791437      -0.03457970      -0.08608991       0.03264844      -0.71326292      -0.11448453      -0.92877376
C      -10.27087171      14.13068336      47.22032382       0.12797097       0.31583366      -0.64633753      -0.58886743      -0.77226067      -0.70505047
N      -10.50193587      15.26885462      46.31949785      -0.71060195       1.74437473      -0.76359933       1.95314395      -0.57789451       0.97300798
C      -11.67857793      15.72480511      45.89779175      -0.71598529      -0.54279948       0.26667505      -1.84236431       1.10464144      -0.65751624
C      -11.46158132      17.03104541      45.41612852       0.15693570       0.22070716      -0.11815410       0.47162676      -1.00678420      -1.45147133
N      -10.08134728      17.27463957      45.47325042       0.66109176       0.02254005       0.54374540      -0.49485719      -0.14747325       0.95384979
C       -9.54325920      16.23976234      46.09224971      -0.62661758       0.15054285      -0.46051696      -0.38847432      -0.53423309       0.92989278
H       -9.89333362      -4.73199865      48.19776547       0.06302178      -0.02171998       0.16828781      -0.18794003       0.34331945      -0.01405561
H       -9.54077264      -5.73892977      46.80935012      -0.06771222      -0.08098442      -0.00361033      -0.29535881       0.41093627      -0.07184927
H      -11.23743586      13.60361097      47.30857500      -0.04727606       0.04982179       0.33424842       0.48753908       0.20331901       0.21934456
H      -12.58237613      15.09249254      45.92341943      -0.04755425       0.00441183      -0.18232720       0.68135130       0.63334090      -0.04548579
H      -11.91873752      17.49025819      44.49650399       0.21702601       0.10316691       0.15911382      -0.09301244      -0.12747100       0.90212452
H       -8.72310752      16.20390978      46.81830301       0.05646142       0.15063570       0.08722655       0.13701627       0.52194464      -0.82526356
C       31.32450169      22.76618800      11.68041525       0.87707471      -0.37043924       0.59796083       1.90885210       1.42298555      -0.38190484
N       32.59628866      22.39350919      10.98463238       0.44056932       0.26742394      -0.11854138      -0.32756716      -1.22495294      -0.58050466
C       32.78513397      21.11387098      10.43988350       0.86856297       0.24213788      -0.49526566      -1.71074593      -0.14981365       1.49729002
C       33.86750461      21.10004002       9.64391758      -0.24884520      -0.00616841       0.48041345       0.94036770       1.63301241      -0.54238832
N       34.42927173      22.39690904       9.83634481      -1.32129815       1.86099691      -0.41985538       0.67876434      -1.33807492      -0.76797670
C       33.61686575      23.13789581      10.54912452      -1.32323874      -0.49838800      -0.12064794      -0.52294874       0.47566003       0.43174297
H       30.52414187      22.33147684      11.10813008       0.06717888       0.06803327      -0.01644044      -0.34669396      -0.56363022       0.27121872
H       31.26408116      23.85373831      11.50772581      -0.16038251      -0.18238932      -0.05853752      -0.13796422      -0.28213328       0.46086389
H       31.42289025      22.51597089      12.75457377       0.26117382       0.04879599       0.22176595      -0.52630955      -0.02656087      -0.75638252
H       32.10016438      20.37900781      10.85784935       0.08494047      -0.04363692       0.04294761       0.43516809      -0.24602100      -0.61975211
H       34.15769718      20.49930285       8.76588199      -0.10494163       0.37618951      -0.20497401      -0.16538981       0.30260587       0.96613610
H       33.70154463      24.20457027      10.63294509      -0.04440065      -0.15260761      -0.02586430      -0.10165325       0.22327676       0.14955907
C       17.89893634      30.74701154       6.43245060       0.43925487      -0.16295399       0.20759414      -0.31500396       0.77986497      -0.51166767
N       17.44372065      29.86506373       7.47565211      -0.65646783      -0.00028392      -0.08194452      -2.03054333       0.05667309       0.08362317
C       17.84887154      29.81395247       8.78874336      -0.26140905       0.44418348      -0.18573325      -0.11849111      -0.97576630       0.90508378
C       16.99333843      28.90184360       9.40584479      -0.10566127       0.91956052       0.27561797       1.08049667       1.00383127       0.89238071
N       16.05450071      28.45387411       8.51266398       0.03471864       0.57889133      -0.04458143       0.48741370       0.76619846       0.43208858
C       16.28773270      29.12904306       7.39775453      -0.33845555       0.24026150      -0.42147008      -0.04786682      -0.82487309      -1.17569280
H       17.60936378      30.46211110       5.41165422      -0.08253887      -0.02683562      -0.08183285      -0.16022474      -0.31992361       0.59584820
H       18.94530340      30.71277167       6.46898630      -0.10199248       0.04898585       0.08497033       1.62669158      -0.03873001      -0.07547458
H       17.63414124      31.80014449       6.58690358      -0.02743012      -0.09644220       0.16506911      -0.38479182      -0.55826259       0.24714567
H       18.69324346      30.35768911       9.24263992       0.11697306       0.05985100       0.02199406      -0.56332713      -0.34102651      -0.80315495
H       17.00954468      28.67720567      10.49167123       0.09891114       0.12671432       0.15940498      -0.18637684      -0.08237384      -0.97597647
H       15.63615580      29.04853702       6.50678874      -0.10200502      -0.19188935      -0.12970738       0.73022032       0.30706540       0.64219964
C        9.46768818      -5.20902015       4.77147799      -0.07910525       0.11441655      -0.60163840      -0.10030871       0.66234916       0.61646831
N       10.50615529      -4.15967026       4.99265502       1.10163079      -0.99491591       1.22494223      -0.87094134      -0.73871762      -0.39072952
C       10.60832804      -2.91132655       4.44470934      -0.22433054       0.52437252       0.10979335      -1.03958249       1.14820576      -0.38861334
C       11.86025779      -2.40950816       4.76123773       0.35770418       0.13954066       0.31722022      -1.82551742       0.27110890      -0.93345034
N       12.46266248      -3.35851746       5.50464351       0.07208997       0.97657337       0.64375505      -0.35521722      -0.59494931       1.06233990
C       11.59789422      -4.36536903       5.68414214       0.75080937      -0.30093557       0.44281703       1.90318942      -2.67065716       1.79893899
H        8.85234560      -5.32818380       5.67271572      -0.13858055      -0.03683484      -0.07788744       0.05913088       0.37217683      -0.14992392
H        9.92290370      -6.18109567       4.62975738       0.14973912       0.12354408      -0.14590793       0.38088864       0.03759119      -0.41732568
H        8.82456859      -4.91468296       3.94215139       0.20403032       0.08514569       0.24707443       0.23414227      -0.06058498      -0.04829067
H        9.66033371      -2.42675107       4.15313648      -0.09689937      -0.20820815      -0.12733067       0.96746367      -0.10386564      -0.04872446
H       12.21457966      -1.41383840       4.54989550       0.02497334       0.11512521      -0.02173758       0.32103866      -0.10932355       0.04635869
H       11.79758203      -5.28093249       6.34457728      -0.13334827       0.12753244       0.24465185      -0.38811648       1.56863701      -1.19930720
C       17.82830795      -3.41461544       9.72598308       0.14612434      -1.18212790       0.27240634       0.06622387      -0.48590964       0.40819746