640
Lattice="19.152215 0.0 0.0 0.0 19.152215 0.0 0.0 0.0 19.152215" Properties=species:S:1:pos:R:3:momenta:R:3:forces:R:3 energy=-80020.75 stress="-0.0009988767560571432 -6.476206181105226e-05 0.0006705858977511525 -6.476206181105226e-05 0.0001376418658765033 -0.00024132199177984148 0.0006705858977511525 -0.00024132199177984148 -0.0018285707337781787" pbc="T T T"
C        2.59678862      14.70203154       2.69728628       1.23290086       0.02357132       0.11690497      -1.39580750      -1.83267689       0.08198265
C        1.69673478      15.63177294       3.52429968       0.14246389       0.61078690      -0.07474231       0.94080544       0.67883027       0.69048262
O        2.12402100      16.53354065       4.27276610       0.36669476      -0.18076556      -0.24153947       0.11063555      -1.00720644      -0.76938713
O        0.40068793      15.47280457       3.38994664       0.79672409      -1.15600299      -0.27979805      -0.14520472      -0.13020277      -0.36209273
H        0.20714302      14.48079711       3.04834209      -0.06355101       0.02447679      -0.14931533      -0.40160319       0.01834017       0.43360740
H        1.97597696      14.28832913       1.83197080       0.17410823      -0.11089640      -0.02540139       0.94410586       0.72176254       0.73160577
H        2.83241398      13.68969868       3.24743764       0.19412216       0.22390283       0.00273614      -0.00732407       2.21402621      -0.69511622
H        3.45414230      15.27313152       2.33352889       0.12803610       0.37908551      -0.15889269       0.01059290      -0.56032002       0.10541397
C       24.95900873      -6.28257504      14.65977812      -0.40365564      -0.46493014      -0.74936973       1.32257068       0.16517821      -0.56705803
C       24.18686743      -5.49257987      15.60945331      -0.01821568      -0.93575888       0.30613409      -1.04778683      -0.11877584       0.86437643
O       24.05561810      -4.25878013      15.44561830      -1.06554585      -0.80857872       0.55914957       0.18007544       0.32680500       0.18498775
O       23.61994085      -6.17976284      16.57007854       0.58973665      -0.29123186       0.58132916       0.21276599       0.22803903      -0.52589661
H       28.94528900      10.00447804      10.63521633      -0.12069597       0.09469942       0.05912073       0.02700173       1.58463049      -1.55749524
H       24.43137703      -6.51539748      13.75755613       0.12938933      -0.04828613       0.07105146      -0.73131871      -0.39732432      -0.51170200
H       25.41920983      -7.13717321      15.10073063      -0.25949543       0.06195075      -0.01279581      -0.15214173      -0.62512875       0.40864852
H       25.76401421      -5.67738792      14.27921597       0.10478567       0.19731676       0.05921299       0.46301150       0.43093866      -0.08764021
C        9.73818628       1.17248897      -2.68889121       0.36251076      -1.04480029       0.25179815       0.00420129       0.40933391       0.39770401
C       10.73965772       1.94912870      -3.48936325      -0.23801440       0.19468230       0.50148029      -0.97440243      -3.83402133      -1.96796644
O       11.15271401       1.10959485      -4.52745992      -0.31026911       0.05322454      -0.89203210      -0.40104410       0.75431520       1.05075991
O       11.16451154       3.04771312      -3.36071367      -0.63681063      -1.15432415      -0.36186439       0.79158700       2.82280493       0.80702960
H        9.73797775      13.86425245      -0.75705361       0.15957401       0.11739049      -0.01172951      -0.10436666      -0.24233198      -0.44103003
H        9.04592400       1.73632768      -2.04123470       0.36173513      -0.17332111      -0.01577238       0.90360868       0.02437097      -0.05273110
H       10.35884137       0.44909337      -2.13952222       0.15083682       0.13105323       0.00631677      -0.53847623       0.07352622       0.21970686
H        9.08351326       0.61602524      -3.33965008       0.03971035      -0.19696054      -0.05572991       0.10500780      -0.31283534      -0.38580689
C       28.66029629      36.06103439      14.50974140      -0.11790827       0.22171952       0.09401394      -0.60052073      -1.10971022       1.84048104
C       27.50211599      34.98909703      14.62241013       0.25569240      -0.76805322       0.13845218       0.50591898       1.23383558       0.49115801
O       26.27893949      35.58311966      14.63543068       0.14139354       0.36816083      -0.38541901       0.17433810      -0.81048608       0.33923501
O       27.70524499      33.78931809      14.80406935      -0.13351053      -0.94490795      -0.46491798      -0.59984815       1.31171310      -0.44484040
H       21.87165197      26.79333831      10.75878797      -0.31909852       0.14287904       0.06357450       0.13266397       0.06193352       0.06162997
H       29.09464728      36.15283484      15.56707325      -0.05694345       0.17304405       0.07025801      -0.60638475      -0.08567929      -1.31167245
H       28.34305397      17.91117619      14.20450825       0.04412046      -0.08445642       0.23909839      -0.14277294      -0.51905668      -0.12959523
H       29.46529063      16.49728196      13.91383215       0.16786323      -0.03962726      -0.19196137      -0.07512539       0.01796265      -0.31945667
C       23.86868262       4.09857864      23.73553025      -0.23536570       0.05724463       0.55558739      -1.01035058       0.55014265      -0.34247160
C       25.22586397       3.90963367      23.21312264      -0.06956855       0.20897870       0.47723914       0.15198365       0.29596734      -0.83278835
O       25.54854396       4.06922895      22.03822741      -0.77534313      -0.15497939       0.16787655       0.06149289      -0.23984429      -0.06094289
O       26.05824621       3.59313149      24.16787432      -0.08392908      -0.80025691       0.23582295       1.55564976      -1.10394466       0.99795622
H        5.89081326       2.42549208      28.05043357       0.32915529       0.07567306      -0.26086147       0.07660455       0.11877665       0.79737067
H       23.17879901       3.40611968      23.24874066      -0.10135784       0.08011101       0.06360691      -0.09816661       0.23456442      -0.17794010
H       23.59628081       5.13730416      23.50806812      -0.09051542      -0.07679351       0.30050230      -0.34628180      -0.35484353      -0.07545145
H       23.79482306       3.94538265      24.79419097      -0.14378086      -0.14233686       0.03418852       0.14641762      -0.10892300       0.52459466
C       -6.98891562      -9.20106138      13.41261265      -0.64419414      -1.20536411      -0.47372446      -0.14056003       0.83089137      -0.61975169
C       -5.67333438      -8.91382252      12.70964168      -0.27333645      -0.62156616       0.36874285      -0.98970675      -2.05000663       1.27083910
O       -5.81539919      -8.05722055      11.76384073      -0.41962217      -0.19757207       1.13514530       1.01885188       1.56220770      -1.46827936
O       -4.60861093      -9.46771550      12.95047996       1.10230812       0.13137972       0.58134177       0.31834042      -0.39695102       0.60203856
H       -4.81044311      -7.94321503      11.39559673      -0.02987428      -0.01564518      -0.10954784      -0.72608268       0.71410465      -0.17725849
H       -7.76270868      -9.66382757      12.76377996      -0.05452746      -0.03955993      -0.07980477       0.63840818       0.56088418       0.17156853
H       -7.32924326      -8.21915038      13.76859084       0.15172009       0.11196963       0.05801032      -0.34439328      -0.16141275      -0.22645929
H       -6.88687619      -9.79871167      14.27646000       0.06166737       0.00341163       0.16826008       0.40939355      -0.83900774       0.90992397
C       23.63694307      12.18497210       0.39165227       0.52323694      -1.08334614       0.05567266       0.99695712      -0.08064801       1.11491799
C       22.99349342      11.27940192       1.37523358       1.02888827       0.03844890      -0.52919444      -2.07250404      -0.54206944      -0.49037462
O       22.36556084      10.19634893       0.91049688      -0.42311929       0.03373995      -0.69425522       0.33089894      -0.05067852       0.11033571
O       22.77563441      11.52075748       2.55402842      -0.40599030      -1.13525841       1.19432045       0.96144503       0.80936170       0.99694085
H       13.08185489       0.57378598       1.72977853      -0.35637764       0.00884320       0.15438704      -0.15110755       0.43780518      -0.04601531
H       23.14595799      13.12057146       0.34563270      -0.15548621      -0.07547297      -0.05763580      -0.90628958       0.85982907       0.04022913
H       23.72547099      11.81134376      -0.59663193      -0.07208842       0.14939286      -0.04791306       0.06425869      -0.51991653      -0.73545754
H       24.60626214      12.47760652       0.78224743      -0.20822653      -0.04659941       0.20283799       0.41416341      -0.09520334       0.02238591
C        5.32751792       6.33539586      12.65586664       0.30617751      -0.65405234       0.35391267       1.06132996      -0.46120113      -1.65603662
C        3.96896399       5.96138601      12.17282655       0.15924734      -0.62599306       0.96171824      -0.56885773       0.06630205       0.57460606
O        3.62525776       6.22584322      11.00344186       1.36169138       0.36217591       0.54228803      -0.30398577      -0.03625387      -0.28697598
O       22.36836786       5.36405074      13.04210956      -0.62460722      -1.20806304       0.10554811       0.47365558      -0.17057864       0.41107011
H       -3.98949754       0.15715243       5.95172606      -0.07957502      -0.02962414       0.01836173       0.81824613      -0.58120859       0.00567757
H        5.97578591       5.40678851      12.54888824       0.03182022       0.15977483       0.03108908      -0.47140980       1.28409624       0.12991437
H        5.39743112       6.64612952      13.66760924       0.12399087       0.05546231      -0.26555316      -0.19809452       0.03133004       0.88783085
H        5.69304751       7.16387644      12.00260247       0.30841654       0.03974977      -0.19567373       0.04652213      -0.80976075       0.44958436
C      -16.90568459       1.67586537      -6.54503799      -0.86327931       0.02654834       0.29915874      -1.57978153      -0.42850387      -0.61895680
C      -15.65380531       0.87580899      -6.53759704       0.98060062      -0.21877828       0.72067651      -0.24375948      -0.60412014      -0.76548612
O      -15.21194686       0.30934861      -7.56305919      -0.01468398       0.67914494       0.28925502      -0.29437041       0.66722834       0.50858951
O      -15.09413902      19.91292277      -5.38761086      -0.51962238       0.27091857       0.02789266       0.39651656      -0.52540696       1.45348954
H      -15.86742816      20.08316069      -4.51928487      -0.00844381       0.11708195      -0.01203093       0.51602918       0.52519107       0.37634957
H      -16.96045133       2.15091411      -7.51617582      -0.21301959       0.22402668       0.25895210      -0.44935524       0.18774563      -0.18585297
H      -17.04032092       2.38625223      -5.74953436       0.32297969      -0.07696201       0.24721476       0.59567046       0.45841819       0.25205788
H      -17.82184014       1.03471163      -6.39178533       0.08842788      -0.17639534      -0.18603995       0.93657398       0.21417682      -0.55846679
C        1.36731054       6.98508860      -2.05179250      -0.82885811      -0.71066157      -0.37925189       0.15750557      -0.17962661      -1.49104810
C       19.28729481       6.99727973      -1.28367649       0.06055856      -1.14810748       0.95168787      -0.70925510       1.61232984      -1.15358019
O       19.29887761       5.99611947      -0.47164679       0.60681685      -0.12086223       0.08618927      -0.73229623      -1.57228565       1.87654090
O       -0.81898825       7.75983519      -1.50561796      -0.06858801       1.23628848      -0.21743526       0.50906122      -0.64335990       0.47439307
H       12.63368962       6.25024063     -11.18180724      -0.04846699      -0.03701821      -0.58962822      -0.35171896       0.39262640      -0.15626657
H        1.41665240       7.92014657      -2.61352022      -0.40624988       0.11381941      -0.23070247      -0.02177373      -0.66513693      -0.65554380
H        1.25425033       5.98836237      -2.59414485      -0.03742681       0.06957227       0.02794652       0.68109787       1.60333657      -0.08185440
H        2.26894059       6.96582479      -1.47680385      -0.02469301       0.17559929       0.18374968       0.39041936      -0.30418989       0.71392733
C       27.06760629      29.23234414      -5.04830398       0.30289262       0.57341594       0.27207799      -0.62614757      -2.12421894      -1.08416927
C       27.34490118      27.91444362      -4.32035275      -0.31609707      -0.49219621       0.46467137      -0.85247475      -0.93526149      -0.34312028
O       28.06302959      28.12939008      -3.24411515      -0.13659397       0.96164414      -0.12052860       0.76821584       0.47849226       0.96381056
O       26.88211288      26.79721835      -4.63552125      -0.01236723       0.43397543      -0.46587659       0.66493607       1.68294513       0.12011492
H       18.37147581       5.84386359      -0.11595496       0.00704852       0.14280192      -0.25225488      -0.53636670      -0.00743431       0.42193216
H       27.62804935      30.04379797      -4.66524865      -0.20697093      -0.13705637      -0.02240048       0.85280526       0.50519842       0.17647861
H       26.03604495      29.47301272      -4.85471741      -0.13022078       0.08523957       0.12150918      -0.51110691      -0.02583002      -0.04153582
H       27.11889533      29.04656378      -6.15032232      -0.06554238      -0.07928527      -0.20307226       0.27931166       0.42116112       0.87067455
C       -3.81105930      -3.71129512       8.51378025      -0.07910040       0.83502715      -0.19221974      -0.87080723       0.04695492       0.78623009
C       -3.87097179      -4.76783588       7.45144582      -0.01782008       0.51693522       0.36541553      -1.07295346      -0.82072508       0.30680504
O       -4.78658865      -4.79114398     -12.55399615      -0.61243480      -0.23316214      -0.76915132       1.91074443      -0.04552472       0.57150710
O       -2.95834148      -5.75260807     -11.56114000       0.77329371       0.26851734      -0.03196706      -0.86288166       0.90915185      -1.32506204
H       15.89770476       1.72839028      14.27641042       0.08032017       0.23127045      -0.24460890      -0.11868358      -0.00640214       0.40585744
H       -4.05934566      -4.07727193       9.55942606       0.03551458      -0.20291259       0.31478489       0.43357065      -0.07600358      -1.28417015
H       -4.60408618      -2.98982244       8.27850296      -0.03719128       0.25899144       0.14091303       0.56096864       0.26065710       0.00663516
H       -2.80642412      -3.29831695       8.56223797      -0.10772755       0.08137454      -0.00701623      -0.09661620       0.37585980       0.06529996
C       -1.69012360      -7.34592433      11.81888783       0.05073673       0.31974123       0.38548222      -1.27504730      -0.77627337       1.05728161
C       -2.59486551      -6.94734089      10.63635043      -0.74157959       0.28724951       0.49278606       1.77219200       0.50840575       1.53221464
O       -3.66204096      -7.57613009      10.57377210      -0.28642478       0.50505105       0.08888197      -1.72929168      -1.01271629      -0.99657428
O       -2.22930826      -6.00563938       9.88326245      -0.52341685       0.50789088       0.54255462       0.69444221       0.40087533       0.19556361
H       -2.58163333      -5.71415307       8.55546186       0.16758994      -0.02047448      -0.21413564      -0.17985529      -0.58170575       0.33756840
H       -2.23168912      -8.23501167      12.30149948      -0.14757056      -0.07484428       0.23701859       0.80642968       1.28238606      -0.48814875
H       -1.65026251      -6.51742870      12.58334717      -0.05802224       0.15649915      -0.24135159       0.12384124      -0.89503253      -0.72868872
H       -0.68400210      -7.68221419      11.55862922      -0.02372227       0.19949097      -0.25177900      -0.17884770       0.42394048      -0.00208544
C       -5.13017663       1.31252594      18.35946205      -0.64941851       0.46702257      -0.51678383      -0.31521416       0.89754128       0.73228639
C       -4.37541546       1.58272636      19.68267123      -0.42425334      -0.21439267       0.53714410      -0.35576147       0.75933510      -1.65987551
O       -5.08040073      20.84703922      20.71163963       0.65532503      -0.00123398       0.01279748      -0.65409940      -0.28633207       1.51539671
O       -3.15698618       1.84676145      19.67116210       0.32573076      -0.39768886       0.87385386       1.56432796      -0.04340708      -0.49328560
H       22.91873198      14.92351485       9.82253424       0.01239329      -0.08611831       0.22818006      -0.03926983       0.41215366      -0.02396894
H       -5.53754544      21.44491061      18.03066692      -0.05723345      -0.01632799      -0.13466872       0.11878021      -0.37276515       0.21233116
H       -5.99229328       0.70592332      18.63400722      -0.35003804       0.05436264      -0.13746483       0.03074226      -0.21925904      -0.56268424
H       -4.55693962       0.96177334      17.50725485       0.10798922      -0.28575838       0.15134647       0.28525949      -0.40714341       0.26034024
C        6.31263849      16.13429446      -1.04085444      -0.25004815      -0.42462918      -0.25861873       1.60615373      -0.58144611      -0.39169317
C        6.30573807      15.65577166       0.38711997       0.28273821      -0.97555806      -0.39849367       0.46717298       0.35909486      -1.04099560
O        5.33048263      15.84982419      20.22388908       1.05166246      -0.43440873      -0.09197643      -1.07692671       0.25545016       1.16151774
O        7.34742493      14.97237761       0.89015886      -0.63835899      -0.10141241      -0.98491625       0.16531813      -0.14449222      -0.14375877
H       11.74931731       1.62885778      -5.12472751       0.11012468      -0.06015648      -0.17554739       0.45259246       0.33866915      -0.36964840
H        7.36609541      16.06512653      -1.45278336      -0.02790490       0.02412837      -0.11504440      -1.14174533       0.50075912       0.36463603
H        5.82337552      17.11430373      17.91897277      -0.07606514      -0.15164707       0.07746484       0.49811241      -0.78958714       0.40132794
H        5.79819327      15.32362814      -1.54406513      -0.00910000      -0.20163090      -0.03664572      -0.34024185       0.09164932      -0.54876381
C        5.82382029      35.85870907      11.50841982       1.08586447       0.39700963       0.42963511       0.69994283      -0.65190822       0.84647381
C        5.17869397      34.57576030      11.13730873      -0.55957574       0.01262933       0.63350350      -1.70714939       3.02350426      -1.34728456
O        4.11614971      34.90283539      10.35949245      -0.28153952       0.18240517       0.70255033       0.47206211      -1.36713493       0.21135604
O        5.49099256      33.46918508      11.48444559      -1.21449515      -0.08820579      -0.41363069       0.63541341      -2.20264196       0.58912337
H        4.86318317      31.87427903      11.24743159      -0.26802632       0.10313806      -0.12879574       0.04712093      -0.97271264      -0.18746315
H        5.02582517      36.53792635      11.72421907      -0.13702902      -0.34459639      -0.24443685      -0.17284116       0.85509378      -0.31349981
H        6.46501051      36.18449430      10.69240534       0.05821545      -0.05529778       0.06699656      -0.15135604       0.14811189      -0.12587434
H        6.40332450      35.75169961      12.41303586      -0.20544071       0.00082583       0.05644474       0.30753833      -0.09859904       0.12423967
C       12.92730498       3.88125766       4.74309077      -0.20033734      -0.12892517       0.60383056       1.52185237      -0.61105019      -1.33407140
N       11.65789467       3.28010409       4.34666574      -0.23916480       0.72820187      -0.72094936      -0.39737651       0.81052417       0.72777957
C       11.31306077       2.68736087       3.18514819      -0.14207965      -0.36098265       0.69524708      -0.93967235      -0.67195684      -0.85390508
C        9.93785898       2.54863189       3.17326312       1.42036818      -0.29965280      -0.35619454       0.90320462       0.35367271       0.03980859
N        9.41814211       3.12451291       4.30533236      -0.49674343      -0.20429506       0.60810453       0.63011837      -0.35946900       0.33074874
C       10.48911302       3.50305168       5.01576117       0.99368464       0.49125100       0.14512653      -0.55121803      -0.06050520      -0.59417021
H       13.81704662       3.24568869       4.46001581      -0.05859853      -0.16635769      -0.04044665      -1.33385170       0.37984690      -0.12536673
H       12.97073398       3.87358171       5.80687420       0.09746904       0.08145851      -0.21256530      -0.20437959       0.60031891       0.89025903
H       13.11606756       4.88098063       4.27941940       0.33287889       0.06318018      -0.18211268      -0.51138544      -0.65330231       0.54985201
H       11.99250746       2.36920225       2.43885771       0.33128170      -0.14326248       0.27387200       0.71294820      -0.06221877      -0.27343732
H        9.36707244       2.04502334       2.41752702       0.27832399       0.06416865       0.08913682      -0.32434475       0.01569822       0.05590907
H       10.46371782       3.84918046       6.01163417      -0.23307491      -0.01205373      -0.12147378       0.07543524       0.34611523       0.87310684
C       -9.77953916      12.76218347      50.87831698      -0.52679380       0.66600302      -0.04679346       1.66121864       1.11933494       1.70454311
N       -9.20612303      14.03393867      50.43803373       0.18488760      -0.06815031       0.02469657      -1.55763531      -1.53347039      -0.47911757
C       -7.90318150      14.36138587      50.30351060      -0.29794449       0.39478944      -1.36556340       2.39365482      -0.72771704       1.14182353
C       -7.88266519      15.51710234      49.57033568       0.07185339       0.01878141       0.05197461       0.63512361      -0.23454559       0.15706611
N       -9.15224011      15.81847676      49.22601305      -0.66682111      -0.65879381      -1.34538947       0.18423103       1.90782428      -1.59461093
C       -9.92522141      14.89815966      49.69607940       0.20609150       0.16197175      -0.62674479      -1.91841042       0.10066569       0.63799757
H      -10.63690025      -6.58262086      50.31786652       0.10194988       0.03724575       0.10125613      -1.54698133      -0.26000148      -0.66758001
H       -9.92677046      -6.31446108      51.96613821      -0.03371394      -0.03277583      -0.33976259      -0.41079593      -0.17858714      -0.49697673
H       -9.06204583      12.00469715      50.69601953      -0.13091168       0.24098100      -0.10302024       0.64424276      -0.85560644      -0.27622592
H       -7.05726688      13.71515344      50.70796312      -0.12446002      -0.14433774      -0.23594884      -1.47878838       0.95785189      -0.59427941
H       -7.04862948      16.07976003      49.19846655       0.11319776       0.00218986      -0.10464451       0.18964721       0.15925029       0.07051745
H      -11.02541512      14.91827966      49.53616584       0.38708082      -0.26048011      -0.02660992       1.06751871      -0.49852416       0.41613907
C       22.64372195      17.43087904       7.33799957      -0.31792940      -0.51821758      -0.04040636      -2.12286234       0.73119563      -0.85720873
N       23.68979310      18.42388606       7.38887929       0.24654160       0.37410888      -0.38401134      -1.87676644      -0.10479803       1.81357062
C       24.25649974      19.06542677       6.35336259      -0.22449845       0.41502150       0.00800884       1.17952657       0.02001216      -1.06063008
C       24.72419134      20.23195028       6.84811935      -0.17679000       0.72479686       0.07731866      -0.81429422       0.92320895       1.72378922
N       24.34327090      20.36139865       8.22099959       1.45128485       1.41376024      -0.12001088       1.13156676       0.26606715      -1.98630691
C       23.69032505      19.25649803       8.46662919       0.37789031      -0.91179999      -0.26956879       1.65399408       0.50682354      -1.50823569
H       22.39978880      17.16409518       8.37263327      -0.30228659       0.22611971       0.07873491       0.36346087      -0.68997818      -0.44760370
H       22.90825679      16.66838710       6.62742178       0.01177162      -0.05363671      -0.20072558       0.18993157      -0.85300428       0.25894618
H       21.66458287      17.86787677       6.90694938       0.22121207       0.00088180       0.25736599       1.61964643      -0.29550347       0.52067530
H       24.31990892      18.64129195       5.35659843      -0.05232706      -0.13928725       0.22489591      -0.08975944      -0.00801807       0.30517131
H       25.00748765      21.12370144       6.37796679      -0.17048966       0.11394010       0.10727134       0.59907216       0.65129381      -0.95872509
H       23.20958540      19.15264072       9.36048522       0.03434274       0.12141653       0.07623119      -1.32485938      -0.97074825       2.14269090
C       16.49321190      28.09854856       8.29268675       0.21264164       0.34416363       0.27389133       0.16715474      -2.16464806      -0.55506521
N       15.09457830      27.60536337       8.43586920      -0.83302317      -0.64522727      -0.80850717      -0.49218214      -0.13714394       0.16179945
C       14.10117914      28.12527539       9.25334486       1.01429412       0.02467188       0.52255845       2.71931958       3.42508745       1.72752023
C       12.97301091      27.43044134       9.15428664      -0.35123438      -0.40324120      -0.21452736      -0.37951320      -1.64592266      -0.31017888
N       13.25653647      26.40513581       8.25261713       1.53905439       0.49446325      -0.40644421       0.57877368      -0.51817316      -0.63694382
C       14.52948916      26.55782886       7.82044490       0.57101774       0.12239530      -0.08797145      -1.69589806       0.76171845       1.45404601
H       16.78693981      28.01797179       7.20287964       0.26786554      -0.14008311       0.11849441      -0.38926265       0.20889626       1.22547221
H       17.21829646      27.47677475       8.91994637       0.17942314      -0.01835336       0.08439119      -1.01567936       0.82583576      -0.72524285
H       16.46256916      29.10346981       8.61843227      -0.17900657      -0.18868672      -0.07727450       0.26472524       1.12632132       0.26272073
H       14.38912445      28.99436363       9.91409443       0.13002910      -0.03480721      -0.03550531      -0.50779569      -1.21683407      -0.97574514
H       12.09358100      27.47983337       9.80043729      -0.03278599       0.04249859      -0.42046144       0.30753046      -0.08016983      -0.63358974
H       15.00551740      25.99894086       7.09162041       0.15535936      -0.08846503       0.18481470       0.59189117      -0.94303513      -1.23203397
C       15.97418154       0.57086044       9.47440448       1.06605681       0.31954337       0.47097716      -1.19307256      -0.18834916      -0.40784156
N       16.17674509       1.89830007       8.94271216      -0.91569605      -0.32480095       0.31790366       0.57796913       0.68432724      -0.21306536
C       15.31545429       2.68827566       8.21221379       0.68679185       1.24309868       0.38955801      -0.44235346       0.57590061       0.25587165
C       15.91708997       3.93777617       8.12991445       0.10251190      -0.16519796       0.15162662       1.22580349      -2.17385411       1.65136099
N       17.14844952       3.91200614       8.83367434      -0.11616419       0.45129906      -0.38053753      -0.63521576      -0.74525720      -1.13332558
C       17.26585305       2.64248162       9.24637715      -0.13103859      -0.22193955       0.48011488       0.25134468       0.54704332       0.28029615
H       14.88032527       0.47362075       9.64951174      -0.08166661       0.23174189       0.00647982       0.81389332      -0.29644114      -0.16135956
H       16.49794964       0.53277226      10.41926368       0.38072116      -0.31594917       0.08968059       0.07589108      -0.33068466       0.13111401
H       16.33622170      -0.17232293       8.74286476       0.29575972      -0.12404762       0.10035706      -0.25019148       0.10250264       0.54053980
H       14.27775156       2.38063126       7.99117253      -0.08027584       0.10683404      -0.09573320       0.94685543       0.16619763       0.12597512
H       15.57155426       4.78641432       7.64020722       0.15627275      -0.07523637      -0.14921378      -0.44767854       1.27728772      -0.64305353
H       18.15836706       2.21225658       9.74235628       0.01222682      -0.11497536       0.12881806      -0.74960649       0.41000661      -0.38726789
C       19.45147269      -6.78132781       7.08768989      -0.73811508      -0.94026023      -0.07061096      -1.28650773      -1.76403785       0.04068111