640
Lattice="19.152215 0.0 0.0 0.0 19.152215 0.0 0.0 0.0 19.152215" Properties=species:S:1:pos:R:3:momenta:R:3:forces:R:3 energy=-80021.1484375 stress="0.0011166034964844584 0.0016953833401203156 0.0004911039723083377 0.0016953833401203156 0.0020825329702347517 -0.0010871071135625243 0.0004911039723083377 -0.0010871071135625243 0.0028155629988759756" pbc="T T T"
C        1.72128060      13.17058321       2.84398852       0.26650737      -1.11981973      -0.07186896      -0.39745194      -2.32737398      -0.83305287
C        0.18821154      13.25485594       2.74909628      -0.44856488      -0.20850002       0.31429682       1.65367138      -0.09454799      -0.00007087
O       -0.48205095      14.20585582       3.08065420       0.33557177       0.42313980      -0.45384927      -0.18660975       1.03203106       0.20441109
O       -0.39917709      12.13791492       2.35372401      -0.18509751      -0.48930173      -0.61932796      -0.98697412       0.09222683      -0.46654534
H        0.09734897      11.35182424       2.65489682      -0.20407415       0.08225444      -0.02226633       0.52165204      -1.25358474       0.24245036
H        1.95905188      12.72357009       3.81150434       0.05168161       0.12282580       0.03342355      -0.00371508      -0.07263190       0.08136031
H        2.27105383      14.06046184       2.77776330       0.00787003      -0.14642859      -0.06445652       0.19816130       1.64320707       0.00156075
H        2.19267458      12.47471923       2.07592150      -0.12961646      -0.06079510       0.36287846      -0.93132395       0.69373477       0.85840356
C       25.73870609      -5.60739142      16.11747907       0.12209579      -0.36537485       0.20413452      -0.97089618       0.51529050      -1.69653153
C       24.28640827      -5.06884807      15.74657636       0.17183078      -0.11358266      -0.10400837       1.37860036      -2.06299543       2.88937616
O       24.02223582      -4.39426993      14.76305332       0.12175487       0.45522828      -0.44962974      -0.31846040       0.27950114      -0.12354302
O       23.46348857      -5.50565135      16.72840697      -0.03732456       0.75714801      -0.19813607       0.99192429       0.42332470      -1.42062235
H       26.14811714       9.98850614       8.72074828      -0.27569418       0.11056105       0.34258570       0.50982523       0.43168741      -1.08994234
H       25.85814218      -5.66491383      17.19050984      -0.13395695       0.13352167      -0.17705903       0.08820076       0.41782248       0.10406169
H       26.50626148      -5.00865773      15.56113120       0.03599131       0.10114428      -0.01986925      -0.59765881      -0.64897466       0.79405749
H       25.77944470      -6.66263670      15.80597925       0.27478378      -0.18711271       0.30515247      -0.02791603       0.42839891      -0.25687042
C       10.74699502       2.51812567      -2.21546887       0.49425973      -0.50922215       1.11225575      -0.06316559      -0.67959535       1.35496044
C       11.32165843       2.89013201      -3.59870882      -0.31979180       0.07200320      -0.72603898      -0.96067250      -0.20182073       2.60326171
O       11.25667296       1.86252379      -4.40627566       0.45942583       0.31583176       0.19587138      -0.40691245      -0.54132676       0.40390345
O       11.71612032       4.02271528      -3.82574340      -1.35936092       0.24475470       0.96422633       0.36281854       0.48313582      -0.80564964
H       10.57957996      15.30566896       0.84748230      -0.08936670      -0.12304659       0.09282990       0.40141106      -1.04618239      -0.74937099
H       11.20938874       1.59422654      -1.71655103       0.01599257       0.14764464       0.19515704      -0.33083785       1.17803371      -1.02450633
H        9.68537356       2.23561361      -2.29145385       0.05372919       0.11551036      -0.05812230       0.32324055       0.07801425      -0.25247315
H       10.72080406       3.31937036      -1.42753046      -0.09113725       0.09048113      -0.08639104       0.53485197      -0.57272530      -1.27100205
C       27.62333255      37.33172070      14.72713216      -0.92431123      -0.01141922       0.36318015      -0.69567907       0.53733635       1.69194436
C       26.66043016      36.23770450      15.14407055      -0.29281335       0.22515902      -0.85248610       0.85394740       1.42398787      -0.61074853
O       25.86893325      35.81649869      14.15050490       0.64754415       0.50053426      -1.80772399       0.85194254       0.40116796      -0.27795640
O       26.64041790      35.88382152      16.30971859       0.17868820       0.46460183       0.80051818      -0.75657421      -0.75651383      -0.22508901
H       20.98166713      27.00192648      11.47810477      -0.13480799       0.03295480       0.21207418      -1.49780488      -0.89082003       0.46205318
H       28.32562331      37.14521305      13.97146310      -0.17315165      -0.10971544       0.11591793       0.77954561      -0.91492379      -1.20980918
H       28.17675896      18.37125863      15.65526408       0.24107783       0.30866688       0.04030504       0.02738696       0.29227918      -0.31337050
H       27.12921188      19.11016570      14.42122709      -0.23897637       0.20838514       0.13498946      -0.22927958      -0.29971856       0.24149802
C       27.55150790       5.14215042      24.95927636       0.95801201       0.01118174       1.16528260      -0.65646827       1.61641073       0.49289086
C       29.02671453       4.87912419      25.16034342       0.22611365       0.74640556      -0.22475837      -1.49469388      -0.55726433      -0.55084884
O       29.45319885       3.73186447      25.25514862      -0.19146666       0.05567309      -0.36291411       0.43732956      -0.71698970       0.31189984
O       29.76226233       5.94335036      25.14520667      -0.50055366       0.47256171       1.10161434       0.69646269       0.64863563      -0.17593870
H        8.07788831       4.41188118      28.72042094       0.04902972       0.44343443       0.46092102       0.01871409      -0.85518199       0.56057584
H       27.00145141       4.43407240      24.34353801       0.01803663       0.27871222       0.05571256       0.40391400      -0.26777264      -0.12365714
H       27.38807349       6.19260906      24.58282305       0.20557322      -0.02693408       0.04302593       0.18526602      -1.09512722       0.30507082
H       27.04789626       5.13069735      25.94751379       0.00816348      -0.14867305      -0.08970798       0.33277658       0.06820048      -0.37820229
C       -9.64228697     -10.30179503      13.08645981      -0.09932964      -1.02077359       0.47440297      -0.63443744       0.37274694       1.21147037
C       -9.40282316      -9.06741930      12.31029628      -0.61312329      -0.51191303       0.66413766       0.78476930      -0.62638962      -1.85103548
O       -8.49811383      -9.31106429      11.32923559      -1.02641165       1.17598013       0.33742715       0.13345885       1.83601916       0.09731835
O       -9.99386871      -8.01117486      12.46865127      -0.32703520      -0.61242203       0.55486878       0.11725059       0.51768410       0.26354739
H       -8.21333134      -8.36552733      10.85536439       0.02667475      -0.12745907      -0.04531021      -0.34550014      -0.84839404       0.35294354
H      -10.55386313     -10.07725011      13.66059467       0.06910934      -0.17352142       0.12709134       0.28486800      -0.60426104       0.02999106
H       -8.83125928     -10.38998454      13.84805723       0.08637637       0.00817846       0.19486344      -0.44113231      -0.46488035      -0.68301892
H       -9.78861033     -11.15618282      12.41070019      -0.16073414       0.07215040       0.09134042       0.33963782       0.17935619       0.51133996
C       22.24256865      10.49987177      -0.44038326       0.45280414      -0.52237058       0.02898555       0.77832901       0.46713907      -0.36397702
C       23.26925755       9.47874937      -0.07249312      -1.61141728      -0.67905477      -0.38271629       1.20975995      -0.20354158       0.02254021
O       23.91270467       8.81308490      -1.04550487       0.11042219      -0.56312095      -0.63813070      -0.94678199      -0.42081302       2.75107145
O       23.54475815       9.28202184       1.11083962      -1.02243049       0.00610941      -0.29416951      -0.11012101      -0.16282165       0.09377170
H       13.20417186       0.68999892       1.96011253      -0.17663530      -0.04560175       0.06404487       0.91041166      -0.56500864      -0.73538601
H       22.26378843      10.64467626      -1.52203003       0.34526591      -0.14609565       0.06605515      -0.67734814      -0.08320698       0.07202823
H       22.45817835      11.48981422       0.00996478       0.22510065      -0.09386174       0.21491863       0.01384427      -0.66386980      -0.02872213
H       21.31489765      10.12298714      -0.03364072      -0.06095904       0.04115436       0.06451323      -0.58029777       0.20886146      -0.31908619
C        5.78931758       7.57563697      11.22627155       0.51076658      -0.03833295      -0.34302984       0.39052713      -0.99133593      -0.30887568
C        4.54947831       7.38511176      12.02725783       0.57005489      -0.11945079       0.10364715      -1.54307818      -0.70445728       0.63063961
O        3.58427011       8.17846487      11.82726164      -0.47453082      -0.14963496      -0.00667877       0.65272182      -1.10803151       0.57093430
O       23.66281586       6.32498662      12.86839643       0.74417610       0.36369027       0.24256274       1.37473083       1.83930063      -1.92615676
H       -2.42614396      -0.10347996       6.13630096      -0.19425401      -0.24723224       0.34026542       0.40728438       0.01615505      -0.23204467
H        6.71471751       7.66164748      11.81446092       0.12492032      -0.48754473       0.16378425      -0.42361838       0.23274525       0.05197784
H        5.57446192       8.44992696      10.62339025       0.15904027      -0.12111378       0.21372953       0.60886294       0.14617294      -0.14325990
H        6.02086699       6.71612976      10.53397543      -0.02626532       0.17034604      -0.20459578      -0.48245507       0.70608217       0.60967600
C      -16.31063024       1.34680761      -6.69500058      -1.31117604       0.39162821       1.10774843      -0.93502647       0.22668219      -1.26238203
C      -15.15326896       2.30002287      -6.64249345      -1.45494369      -0.48637931       0.01781088       1.32710934       1.31416774      -0.60175455
O      -14.73136327       2.95646284      -7.64572234      -0.09220033       1.45618415      -0.17412322      -1.18869007      -1.17511523       1.54735029
O      -14.54440006      21.56637174      -5.47369489       0.99264572       0.28873181      -0.38108228      -0.27849591      -0.46858460      -0.41956991
H      -15.11205606      20.92096725      -4.64927447       0.12986122      -0.22075824       0.24010366      -0.63625914      -0.06794441       0.23895487
H      -16.67047247       1.16528002      -7.75665521      -0.05928320      -0.05429054      -0.23436274       0.19574285       0.56469917       1.34650254
H      -17.11846044       1.68653183      -5.98735909      -0.11926295      -0.15658358      -0.10750646       0.69199157      -0.50364161      -0.84847373
H      -15.94342742       0.38433275      -6.37902769      -0.08011856       0.12394557       0.20590757      -0.02488410      -0.45851901       0.47461531
C        1.83330095       5.73691536      -0.21423353       0.61836193      -0.00404403      -0.86813134       0.85331160      -0.00111642      -0.16235058
C       19.52526154       5.53921330      -0.12855417      -0.00925367      -0.45523667       0.22735258      -1.69173980       1.34535217      -0.25916559
O       18.97988602       6.61745313       0.47998659       0.46081690       0.01679341      -0.44788885      -0.27647173      -1.72215068      -0.13229984
O       -0.28751580       4.57880273      -0.57420058      -0.72928632      -0.40531481       0.25080609       0.83299923       0.71581900       0.60093176
H       15.87014813       9.61287608     -11.04186177      -0.25724209      -0.05450062       0.12399263      -0.05968404      -0.47165695       0.12991002
H        2.15740970       5.56907267       0.82738339       0.17942764       0.25098188      -0.05334469       0.41932464       0.59185344      -0.38878399
H        2.09261889       6.74373891      -0.62830289       0.00995411      -0.18464864      -0.02723742      -0.26671159      -0.69360375       0.90297538
H        2.33346479       5.00463448      -0.82577015       0.00186328       0.05918581       0.02862128       0.01093956      -0.48531300      -0.21258530
C       28.97273815      30.11300439      -2.24052832       0.10015207       0.44791098      -0.09631239       1.11607504       1.42374110       0.53249061
C       28.98540593      28.62128149      -2.00382742       0.26369600      -1.28227092      -0.35742631      -2.89656377       1.81058300      -2.03580213
O       29.88050295      28.20002950      -1.25066803      -0.60890657      -0.86928185      -0.12202135       2.58604026      -1.60359573       2.60440159
O       28.08361337      27.97209172      -2.56008772       0.00387893       1.03661643      -0.18030513       0.00310022      -0.88898218       0.12890229
H       17.90773341       6.30107349       0.80256052      -0.34370143      -0.03664722      -0.06394241       0.16233250       0.19516212      -0.52291656
H       29.52320312      30.34211760      -3.16995847       0.15419164      -0.11594737      -0.19509793      -0.41592497      -0.18354516       0.11471659
H       29.56687700      30.66495530      -1.45653790      -0.08921967      -0.21113576      -0.05195233      -0.75060058      -0.58909947      -0.56976151
H       27.95935742      30.55387121      -2.32574453       0.22670864       0.05209514      -0.06585914       0.58132339      -0.52279043       0.05185950
C       -5.59521486      -2.80868076       8.29075056      -0.36729602       0.00277378      -1.06271906       0.03183746       1.82213354       0.19885823
C       -4.76487021      -3.90363990       7.77244130       0.52014163      -0.14776123       0.69819251      -0.41052708      -0.24818861       1.71282911
O       -3.95896877      -3.70771433     -12.27406456       0.25521840       0.32406688      -1.19181002       0.52750635      -0.81980038      -0.81330919
O       -4.86355617      -5.04623023     -10.68403052      -0.11420617       1.69267402      -1.27032363      -1.00988269      -0.79231292      -0.04696143
H       15.23764084       1.44687164      14.41656117      -0.14131991       0.21284495       0.00818935       0.50083816       0.03060034      -0.23652744
H       -5.91702897      -2.95176589       9.33470660       0.00257145      -0.17484464      -0.22446622      -0.26400089      -0.11957818      -0.85998011
H       -6.36552083      -2.51085812       7.56455808      -0.07888079      -0.01240067      -0.20181029      -0.20469598      -0.43040442       0.51303375
H       -4.92641436      -1.92439266       8.30109862       0.03197331      -0.02300734      -0.05564647      -0.23714983      -0.33737046       0.15273671
C       -6.56548803      -6.68345621      12.19808627       0.07346427       0.34542743      -0.84884198      -1.32008553      -0.21838354      -0.00637180
C       -6.99723164      -6.34506045      10.80022254      -0.72267532      -0.11468711       0.61536281      -2.14386439      -0.15565486      -2.50931764
O       -7.79455884      -7.11751027      10.10718391       0.16510021       0.88088910       0.30066557       1.40381384       0.07327187       1.94587171
O       -6.63912703      -5.24396566      10.26715769      -1.26805751       0.25250026       0.52034013       0.82570052       0.14847469       0.19146985
H       -5.79694916      -5.21940666       9.12199848      -0.20058253       0.10557839      -0.06830863       1.30589771       0.96920025      -0.43704313
H       -6.04351802      -7.61211486      12.07467410       0.21784385      -0.20868823      -0.04262231       0.25637579      -0.84244496       0.34944093
H       -7.52192898      -6.89667820      12.80811318       0.28817208      -0.05723255       0.01493014       1.70338392       0.56083393      -0.62765729
H       -5.83486734      -5.94191071      12.54749298       0.22877461       0.20070508       0.22367773      -0.67820543      -0.13508578       0.21275416
C       -4.85412791       0.01286277      17.72984534      -1.08112952      -0.41828000       0.17804283       0.30607894       0.10853734      -0.91417789
C       -4.37513508       0.74509026      18.94411636       0.19799981       0.06135908       1.53933334       0.51745445      -0.28721213       1.57297659
O       -4.79595173      19.45203551      20.08014075      -0.54210759       0.41767286      -0.25711031       0.66831446       0.59260100      -0.98257869
O       -3.51622004       1.72167866      18.82902305       0.04102318      -0.36371209       0.00022280      -1.51192570      -1.54463100      -0.12540460
H       20.09963688      13.51332028       9.51906481       0.04496285       0.09183433       0.06640169      -0.34373462      -0.11624473      -0.04399920
H       -4.20127666      19.45962716      16.90125424       0.25156511       0.15381519       0.13726427      -0.51903391      -0.05319285      -0.11730200
H       -5.90113945       0.28151901      17.53732242      -0.08952224       0.06698905       0.00709349       0.24626973       0.05657123      -0.15797016
H       -4.84326017      -1.08887845      17.80532019      -0.03920711       0.09570488       0.20888861       0.12185543       0.49984655       0.42762446
C        6.48501503      15.47120266      -0.21848536      -0.24292703       0.19609011      -0.21742764       0.53203285       0.63874221      -0.32200122
C        6.64548198      16.90124351       0.27767826      -0.28749222      -0.12936784      -1.42448718       1.22973704      -0.58888388       0.60335338
O        6.05832404      17.81779648      18.91221867      -0.00351283       0.40726672       1.53079929      -0.56263143       0.84199059      -0.30320954
O        7.53795334      17.17526755       1.31460049      -0.90116388       0.16790922       0.76151861      -1.41553354      -0.19186938      -1.29215527
H       11.71562326       2.03878444      -5.25620767       0.12038722      -0.21592726       0.04317335       0.99678814       0.45207790      -0.68562651
H        7.07144645      14.76049152       0.28967940       0.19084729       0.01778050       0.25320678       0.99106693      -0.71474910       1.00763381
H        6.77893153      15.37941051      17.88910875      -0.10536438      -0.15502350       0.06615528      -0.11364401       0.55070937       0.09208822
H        5.48349176      15.10366117      -0.14365180       0.23335835      -0.20605278      -0.07814608      -0.93653125       0.23659070       0.07644352
C        3.13916346      35.27115088       8.31641264       0.22502235      -0.05096957       0.12123605       2.11136198      -0.84305215       2.36440229
C        2.75455845      33.94061679       8.88208508       0.83807742       0.36641143      -0.25639607       0.67818791      -1.52487254       0.93437976
O        1.65505989      33.48936550       8.42830640       0.87942694       0.42913330      -0.25545269      -0.11814821      -0.61510593       0.77609873
O        3.55312448      33.26727239       9.69257699       1.05073396       1.24069818       0.56647483      -1.86179113       1.36444402      -1.77618885
H        3.16670560      31.71230109       9.47348340       0.16576794      -0.06711697       0.05403453      -0.07262197       0.89649582       0.27667996
H        2.30094040      35.81457992       7.98475243      -0.23851079       0.02034826      -0.11816179      -0.77170312       0.69508666      -0.29354650
H        3.77630648      34.95022602       7.52004603       0.18732806       0.12535368       0.09892361       0.52201587       0.40634325      -0.98901194
H        3.78987694      35.76899351       9.07593843       0.06848911      -0.04956662       0.08412677      -0.60714591       0.05763328      -0.76977444
C       16.42857119       5.98217375       6.56049215       0.25607889      -0.23083059      -0.18123421       0.27777594       0.24364984       1.06106150
N       15.18071208       5.56301619       6.02375080      -0.39362347      -0.56335893       0.47357919      -0.38410768       0.38125139      -0.19512305
C       15.06600733       4.69008528       4.98111305      -0.50874724       0.19312191       0.14397980      -0.30954462       0.71921563      -0.14678168
C       13.73924436       4.63450785       4.70617204       0.15110268       0.89918638       0.63111271      -0.51382053      -1.95479345      -0.41097519
N       13.02869183       5.36148474       5.59965680      -0.14159701      -0.11409983      -1.12021065       0.70268524       0.89639509       0.26541933
C       13.94568283       5.96852014       6.36700964      -0.14599202       0.12941244       0.40175478      -1.08470809      -0.28013349      -0.04740609
H       16.43832051       7.03882876       6.83357530       0.28268019       0.09579048       0.02397546      -0.07883648      -0.05643320      -0.34342006
H       17.20991620       5.70087999       5.88615436       0.13850481       0.26903225      -0.19867211       0.44611880       0.14759143      -0.52192718
H       16.58899138       5.41647976       7.46148168       0.01135574      -0.02868846       0.15423892       0.25040627      -0.17123778       0.48286453
H       15.90794651       4.33583794       4.44536660      -0.23349773       0.04014819      -0.06409877       0.53811568      -0.30580845      -0.22687678
H       13.28370936       3.87876264       4.08454771       0.09874365       0.20772692      -0.02940958      -0.28204471       0.23108038      -0.16001630
H       13.64254035       6.66876260       7.12863400       0.06187307      -0.09624440       0.28662365       0.58756101       0.13246705       0.20346633
C      -13.13055459      14.35576228      49.80728313      -0.29410910       0.28641198      -0.19901752       0.95840073      -0.23122725      -2.14876819
N      -11.79874849      14.72794751      49.21743406       0.72891888      -0.36497644       0.60986867      -1.41888201       0.71769994      -0.52947235
C      -10.55062144      14.30040766      49.53212728      -0.60205456       0.92147393      -0.11499690       0.68234545      -0.70426208       1.15540111
C       -9.65824314      15.00644871      48.78995863      -0.73243023      -0.15406377       0.04738778       0.77750701       1.43896532      -0.49082154
N      -10.37027020      15.94425555      48.06265687       0.47778141       0.69144479       0.56394260       1.02450442       0.13801292      -1.12780476
C      -11.63536596      15.70272474      48.25015480       0.26819433      -0.44137971      -0.45643828      -1.51934516      -0.58776700       0.42439881
H      -13.05831475      -5.69295582      50.38290073       0.05339228      -0.05686459       0.07801383       0.62541628      -0.20450720       0.87317348
H      -13.72806748      -5.14990607      48.93785738      -0.06400178      -0.10827482      -0.42802901      -0.07866493       0.79206288       0.56681353
H      -13.54974176      15.19840979      50.34232756       0.21818865       0.33472404      -0.12840386      -0.14891125      -0.07085669       0.06870258
H      -10.34601312      13.69972416      50.40187231      -0.20694413      -0.12326755       0.38554983      -0.22672975      -0.36859086      -0.10488029
H       -8.55603482      15.06569790      48.72900680       0.02085154       0.00031800       0.08129457      -0.93960929      -0.56551516       0.27318677
H      -12.43525448      16.03514849      47.56514944       0.04040028      -0.31908378      -0.00635779       0.40380171      -0.25114462       0.81002235
C       24.32134806      20.21443566       8.91744092       0.30253406      -0.32821002      -0.14845365       0.66903758      -1.07263303       0.47521216
N       25.52395653      21.00223896       8.90717456      -0.19021559      -0.54603255      -0.62975605       1.38795471      -0.61856174      -0.67106539
C       26.74584738      20.66098324       8.27190251       0.42078443       0.71743953       0.33288317      -1.65527594       1.71231270       0.99641997
C       27.57229833      21.70990253       8.47351547       0.14036638      -0.52637529       0.15126408      -0.61308372       1.00178540       0.37848499
N       26.85943793      22.57587913       9.31012114      -1.49444468       0.11505712      -0.09106640       3.09681654       2.47494173      -0.41053629
C       25.67951634      22.15039439       9.59601400      -0.20320032      -0.20593671      -0.83865725      -0.32221711      -2.33260727      -1.72041631
H       24.67943978      19.11978989       8.85879591       0.06960268       0.14969443       0.13358560      -1.17655516       1.61791492       0.06084132
H       23.64372736      20.53180896       8.11761419      -0.09868117      -0.11220649      -0.27145651       0.11434180      -0.42309877      -0.00824994
H       23.91088911      20.50038785       9.89080225       0.14723197       0.16533679       0.32256841      -0.54963630      -0.76203108      -0.20168570
H       26.85184506      19.82682599       7.66821303      -0.01519280       0.06485007       0.09820990       0.02066419      -1.42879093      -0.76681376
H       28.41247987      22.09031934       7.89535901       0.07831140       0.16023289       0.21624343       0.00932021      -0.26812309       0.24578056
H       24.94287306      22.49591788      10.24963500       0.00705292       0.07787579      -0.05254787      -0.81324172       0.93947613       1.01884472
C       19.19320132      31.05826439       6.12081259      -0.32853468      -0.46222127       0.00688596       2.21448326       1.51779151       1.06775331
N       18.02452702      30.83126847       6.94619266      -0.72489953      -0.40253319      -0.83743528       0.23690516       0.80449879      -0.21063137
C       16.90959827      31.67094238       6.91125713      -0.11885985      -0.43286464      -0.83654041       0.46000788       0.61800981      -0.54274148
C       15.93338789      31.02443372       7.61016075       0.35488787       0.48531912       0.53982627       1.97074902      -1.21376777      -0.44677034
N       16.45192661      29.78853469       8.03374631      -0.01258789       0.30366125       0.68525866       0.94202346       2.64194441      -0.22459081
C       17.74385313      29.74066644       7.69475644      -0.54032780      -0.22055903      -0.30497869      -0.64389390       0.91759789      -0.76335490
H       19.51910980      30.16761559       5.62513575       0.04927601      -0.22465640      -0.28335399      -0.13382858      -0.60143763      -0.40116578
H       20.14604367      31.44046771       6.70216233      -0.36127465       0.14500050       0.05812659      -1.94376922      -0.65974188      -0.65787828
H       18.97628573      31.84865241       5.39130899       0.07618232      -0.04274453      -0.19014221      -0.15236723      -0.36919165       0.16010174
H       16.91149456      32.65983873       6.35097923       0.02393897      -0.03393443      -0.15631388       0.00172059      -1.56028199       0.99377084
H       14.96570723      31.38049625       7.76470055       0.24745629      -0.20937002      -0.07684395      -1.25635076       0.04435718       0.48878676
H       18.48296021      28.99182573       7.92639853      -0.02587811       0.16517283      -0.22730563      -0.15708235      -0.11357631       0.23210347
C       12.38346295       3.43364421       9.15048951      -0.49993165      -0.92337893       0.63404829       1.70086217      -1.73119426       1.93586421
N       13.85674856       3.40423152       9.18907219       0.94488603      -0.11481844      -0.30893487       0.56406248       1.05459964      -0.85159469
C       14.69242759       4.50554526       9.37102977       0.44765244      -0.27753289      -0.72500624       0.12795962      -1.12796438       0.73470271
C       15.97831901       3.99611164       9.44470940       0.33462634      -0.45165570      -0.67417984      -1.12918067       0.41918141      -1.05037451
N       15.91950793       2.65646277       9.19214988       0.78906892       1.05107829       1.01964918       2.39133739      -0.20758703       0.64343810
C       14.68841802       2.32025022       9.06127471      -0.12418725       0.80309510       0.29964818      -2.03190899       0.87215191      -0.14907902
H       12.04938628       4.17272973       9.83732686       0.36262276      -0.28684062      -0.16042491      -0.44389895       0.65424305       0.47176903
H       12.16193283       2.44894393       9.56842143      -0.04537528       0.06274031       0.06347155      -0.60475647       0.11999559       0.04682217
H       11.89989573       3.51643711       8.22833901      -0.08450262      -0.17203798      -0.12694236      -0.10406288       0.34315637      -1.82565069
H       14.28846958       5.46919781       9.56467279       0.18489310      -0.08348231      -0.04512561      -0.20807549       0.66744304      -0.02601836
H       16.93308747       4.48415590       9.39618785      -0.04155309      -0.06617714      -0.05627688       0.03729570       0.24738742       0.26978880
H       14.30764108       1.39816653       8.73405763      -0.16287955       0.05243186       0.11786465      -0.22662385      -1.10493422      -0.21195552
C       16.03151345      -5.76652244      11.45888563       0.04820175       0.31578770       0.92317815      -0.87281716      -0.28378588      -1.18923426