640
Lattice="19.152215 0.0 0.0 0.0 19.152215 0.0 0.0 0.0 19.152215" Properties=species:S:1:pos:R:3:momenta:R:3:forces:R:3 energy=-80021.171875 stress="0.0022076531313359737 0.0013159443624317646 -0.0014117725659161806 0.0013159443624317646 -0.0013095109025016427 5.746755050495267e-05 -0.0014117725659161806 5.746755050495267e-05 0.00213809497654438" pbc="T T T"
C        2.92282777       9.28088520       1.00001772      -1.45840168      -0.23880787       0.79717876      -0.78807801       0.32068461       0.16419041
C        2.93808301      10.54709325       0.16368573       0.76265447       0.54273240      -0.36851389       0.26375103      -1.46406925       0.44616032
O        3.00294251      11.62099700       0.71332280       0.36008996      -0.24762453      -0.17406987      -0.00352061       1.76882935       0.59854460
O        2.84829967      10.44968547      -1.14913825       0.52641450      -0.55849403       0.35042706       0.11406650       0.32873690       0.26388180
H        2.88587237       9.46329189      -1.39670844       0.02674163      -0.19370748      -0.20823313      -0.38490757      -0.68145388      -0.70611203
H        3.19254840       8.39062222       0.49123347       0.05471608       0.02832258       0.13583666       0.41751802      -0.63312781      -0.74658811
H        1.88659443       9.09552688       1.30820352      -0.13252331       0.16574934      -0.10118525      -0.02280216       0.13114680       0.10492344
H        3.50713423       9.36334915       1.90978135      -0.03609345      -0.04130745      -0.19609421       0.07357861       0.30476198       0.00486306
C       22.32316419       0.60817607      14.78527870       0.59222961       0.52256394      -0.21702236       0.54177248      -1.38472366      -0.44351941
C       22.73169953      -0.87093613      14.94035760       0.69831469      -0.57173845       0.71465571      -2.05115080       1.51648545       1.57965600
O       23.37378861      -1.43722145      14.00081411       0.23053768       0.69995368       0.32820923       0.37524241      -0.27235752       0.30576569
O       22.31917575      -1.39083108      16.03266070      -0.14774568       0.49148158      -0.07898378       0.52537507       0.07174259      -0.80241424
H       26.73188386       8.03963913       9.29977942       0.07781408       0.09206566       0.24296305      -0.29475614      -0.46788287      -0.02414252
H       22.81450386       1.23850547      15.50820053       0.03821197      -0.20422950      -0.13315274       0.54657149       0.18152276      -0.05898130
H       21.28769925       0.75433071      14.99803295       0.22278217      -0.06192949      -0.18505470      -0.95653021      -0.29216921       0.12448608
H       22.48217369       0.87233607      13.75617779      -0.21000668      -0.19939096      -0.08531364       0.27237383       0.67232835      -0.28383446
C       14.10362132       5.91596277      -6.68851091       0.56368040      -0.73075685      -0.83308731      -0.12188730      -0.49810594       0.06651869
C       13.57016922       4.60208703      -7.25069863      -0.12909146       0.53455677      -0.70855696       0.84355664       0.30938262       0.39332962
O       12.50751519       4.07513398      -6.62803514      -0.75976642      -0.59834568       0.00023951      -0.58272791      -0.52201194       0.21350724
O       14.16204284       4.03271186      -8.14828208      -0.28942439       0.80426498      -0.70282553      -0.05900859      -0.47615862      -0.60938978
H        8.51748068      12.20090260      -0.02816343      -0.12086882       0.12425799       0.33478093       0.90469325       0.51657599      -0.14691892
H       13.35603920       6.70782260      -6.81655536      -0.11053185      -0.31729853       0.26361170       0.11514920      -0.12445346      -0.13441168
H       15.02173333       6.14954674      -7.32338057      -0.18958224      -0.23265966      -0.04847342      -1.05618095      -0.13820681       1.28086615
H       14.22802588       5.80269030      -5.56770905       0.13607459      -0.07040436      -0.05044046       0.40129152       0.22980684      -1.32265723
C       24.94637585      35.69393991      16.78948499       0.46266643       0.19053995      -0.27837518       0.32454529       0.29276493       0.06255269
C       24.97261741      34.48975528      15.90599841      -0.33903826       0.81698160       0.86920076       0.69105178       0.90284705       1.10121298
O       24.60498044      34.73271263      14.67389036      -0.41921355       0.29362819      -0.13472920      -0.45111495      -0.41892803      -1.58275020
O       25.34220553      33.39399670      16.28486767       0.36341598      -0.34051445       0.53541703      -0.07871306      -0.36698699      -0.12769879
H       15.06909622      29.06305454      13.77169970      -0.20314291       0.00791782      -0.22259272      -0.11995900      -0.03583519       0.00589657
H       23.88177579      35.85931180      16.97378334      -0.05625380       0.13995137       0.18463747       0.59233606       0.54612756       0.27087027
H       25.43867906      17.42722800      16.31097565       0.00003575       0.02481257      -0.02374933      -0.59659195      -0.67741752       0.35243279
H       25.47243692      16.29984695      17.69918804       0.05848362       0.10791750      -0.16823122       0.10414258       0.09000050       0.32473692
C       27.47123829       5.68716245      25.54511393       0.29343640       0.86300354      -0.64150288       0.92328411      -0.96351939       0.10031830
C       28.95085118       5.53654248      25.60660234       0.31747431       0.06081745       0.81805636       0.72484821       1.17537689      -1.29866660
O       29.77941204       6.25655482      25.02175253      -0.35837254       0.49156451       0.12315744      -1.17831910      -0.23409611      -0.02707380
O       29.33607747       4.51872213      26.28617027      -0.99220323      -1.19414580      -1.46965803       1.48821926      -2.23931313       1.26305461
H       18.30460230       3.72376273      27.82184077       0.23256723       0.00309431      -0.19560000       0.30341327       0.59817064      -0.13518772
H       27.11504443       6.11894508      26.41799632       0.03722497      -0.03491966      -0.23395328      -0.34285367       1.05563641       2.10043097
H       26.93818723       4.74379986      25.53527992       0.19084001       0.20522202      -0.25051973       0.12016417      -0.24051628      -0.63707316
H       27.25101978       6.38221462      24.80840444       0.00804720      -0.21787757       0.17947864      -0.81503505       0.84942025      -1.81440139
C       -6.49645151      -5.69235019      14.66613626       0.23294032       0.12753763       0.71154719       1.48436737       2.23061609      -1.61583698
C       -6.03312357      -4.58107400      15.62771619      -0.67539024      -0.38061655       0.97957991      -0.72699314      -0.36979550      -0.49407530
O       -6.75320122      -3.45787826      15.56249653      -0.77571579      -0.06245887       0.61476904       1.70239425      -0.88131762       1.79127085
O       -5.12372075      -4.73581054      16.44911203       0.21477187      -0.27762012      -0.99433321      -0.38559818       0.26426947      -0.17081118
H       -7.12863238      -3.30589836      14.66136701      -0.10446923      -0.16056705      -0.05141352      -0.20876908       0.11900730      -1.27327025
H       -6.71550808      -5.25210215      13.64494624      -0.10146607       0.03025316       0.14025334      -0.11813134      -0.30551586       1.22177398
H       -7.36256346      -6.12011882      15.06839821       0.16312719       0.03946449      -0.08392924      -1.30566633      -0.93519336       0.55700725
H       -5.73081572      -6.42357856      14.47107364       0.00734406       0.13579929       0.21885077       0.30235767      -0.41660157       0.47205669
C       23.28927507       6.18956961      -1.44176417      -0.19211561      -0.45251959      -0.17892067      -3.62209940       1.36378539      -0.26785588
C       22.93387884       7.51957539      -2.10288896       0.89960922      -0.69641460      -0.42800385      -0.49785000      -0.31594604       0.18138582
O       23.76330083       8.06040362      -2.86716581      -0.01763591       0.57286708      -0.08059884       1.09724092       0.23109990      -0.83777112
O       21.80794321       8.05342675      -1.79573250       0.39703113      -0.88488174      -0.07820659       0.44114566      -0.61917269       0.11815417
H       14.52513007       1.07561819       2.34611563       0.22490434      -0.16837099      -0.00126713       1.15279806      -0.80368280       1.54412079
H       22.30472239       5.87039659      -1.00453565      -0.17131571      -0.04663045       0.26435047       1.26128423      -0.44735667      -0.42935678
H       23.94203979       6.41689864      -0.67894901       0.01124194       0.14960354       0.23044016       1.42337883       0.48546559       2.04558659
H       23.79503376       5.52391561      -2.06985811      -0.10882684      -0.06724974      -0.14699770       0.25117543      -1.15549493      -1.10595083
C       -0.08268683       9.79648232      13.16610787       0.67798898       0.53074790       1.02579043      -1.49293423      -1.43711090      -0.59651303
C       -1.30986134      10.58693688      12.78191280      -0.73564651      -0.59537781      -1.52064432       0.29418969      -1.98939419       1.25539017
O       -1.06934020      11.85041443      12.65057603       0.70505386      -0.83058327       0.64498590      -1.36191571       0.31304541      -0.18395552
O       16.76875921       9.91936846      12.74776589       0.20991056       0.77353822       0.31468428       0.21363366       1.74748492      -0.46502775
H       -2.32410326      -5.03621289       6.12079932       0.15333697       0.10136231      -0.02445329      -0.40180308       0.15683556      -0.92798781
H        0.25130968       9.27334417      12.23843968       0.06142227       0.46595440      -0.34721924      -0.02394812       0.28760558       0.83927643
H       -0.42214825       9.06749724      13.94464340      -0.30162324      -0.23508926       0.23205867       0.60398871       0.42195386      -0.71699923
H        0.66738487      10.43616086      13.52117869      -0.14927355      -0.23742330      -0.10201462       1.14711404       0.61737990       0.44444108
C      -21.16177454       2.39889246      -5.67381417      -0.56345243      -0.22160776       0.66539948      -1.45630741       1.24500036       0.42298365
C      -20.37342285       2.15328413      -4.46842217      -0.28463098       0.08456478       0.24962378       0.13284016      -2.12272811       2.01019430
O      -20.30465033       2.99966797      -3.52896308       0.42672090       0.15735623       0.20493186       0.31337285       1.15929401      -0.03096998
O      -19.90143870      20.12843529      -4.34125811       0.58057774      -0.79077506       0.66190818       0.50366747       0.28268111      -0.52828979
H      -18.72510096      22.15014710      -2.74610294       0.02314500       0.24960330      -0.25443868       0.06865084      -0.00272903       0.01934123
H      -20.69997267       3.21001747      -6.18266917      -0.00225567      -0.03915842       0.22628836       0.33267000       0.72729230      -0.85206497
H      -22.17643934       2.77942914      -5.38306366       0.03465902      -0.05306732      -0.00897338       0.73474538      -0.50925553      -0.36588264
H      -21.20306769       1.51482787      -6.26617165       0.01613931       0.18846960       0.13240088      -0.19119999      -0.46655142      -0.54410696
C       -5.81720758       7.57826526       4.29028855       0.30066904       0.04727213       0.50538010       0.77052659       0.08952827      -1.06835663
C       13.95631625       7.10375023       2.93341558      -0.21699382      -0.15661264       1.11908761      -2.95383859      -2.47451138       4.27977610
O       13.56485725       5.84230353       2.64967440       0.02006682      -0.00920970      -1.04583683       0.17161167       0.46513093      -0.05067980
O       -4.37005974       7.73613649       2.38153513      -0.28627767       0.75892574       1.26655343       2.66064978       1.97324538      -2.58638835
H       14.18979151       8.66885269      -9.68235858      -0.13208940       0.14665413      -0.18421334      -1.00399148       0.56320292       0.14143983
H       -5.69265358       6.77583289       5.06362818      -0.47443616      -0.17174634      -0.05031773      -0.32753778       0.77653456      -0.63023013
H       -6.90051290       7.77410997       4.10120066       0.09906080      -0.10044296      -0.11889276       0.77861983      -0.13315734       0.37487417
H       -5.22295615       8.50115645       4.53639069       0.02162032       0.03708448      -0.11674983      -0.90490639      -0.83665001       0.09327789
C       31.61749105      23.20345815      -3.19856328      -0.48777547      -0.42081154      -0.03003720      -0.07141697       1.33668470      -0.20787971
C       30.93185230      24.12418498      -2.22514557       0.55655189       0.06824457      -0.10940334      -0.76477653       0.76827598       2.55923891
O       29.68217012      23.67616362      -1.74588923       0.36588798       0.38010295      -0.14126268       1.16116321       0.16629183      -1.40377557
O       31.41541560      25.17352338      -1.78458667       0.97674051      -0.30643478       0.38003984      -0.44549176      -1.14775777      -1.17519271
H       14.17730037       5.47535372       1.90082107      -0.17352999       0.18598258      -0.16709228       0.06417489       0.07401055      -0.17228174
H       32.64386792      23.59869741      -3.33667267       0.14594529       0.32318976      -0.30712741      -0.68088073      -0.12273101      -0.19250721
H       31.00933773      23.27968521      -4.12813125      -0.18960395       0.08602119       0.09974854       0.77787375      -0.55265749       0.33329800
H       31.71579608      22.19051540      -2.84270810       0.16465463       0.00220680      -0.05369039      -0.44810891      -0.44633862      -0.00122393
C       -7.74306879      -2.12649117      10.16525196       0.56623620       0.19493762       0.25198946       0.10750532      -0.87601066       0.46048534
C       -8.26546597      -3.54894050       9.94753147      -1.00607526       0.31594321       0.09984630       0.03174996       1.38382149       0.63862050
O       -7.97308444      -4.19194403     -10.18319871      -0.88457558      -0.91222720      -0.86263731       0.89436150      -0.52450395      -1.87757587
O       -9.08550447      -4.05328863      -8.33446933       0.19196760      -0.26494496      -0.52335746      -0.73465973       0.41667581       0.93246293
H       12.47692746       0.50904108      15.12560600       0.05969758      -0.02335696      -0.05568230       0.09332158       0.15479361       0.22232893
H       -7.18131710      -2.06108269      11.12426412       0.14765147      -0.16437232       0.14306560      -0.70507956       0.12737286      -0.57674301
H       -8.56751154      -1.42900777      10.12259435       0.14153614      -0.09187663      -0.02320603      -0.17636640       0.14894760       0.26378328
H       -7.11398888      -1.88227788       9.33234055      -0.10869629       0.17899518      -0.06731063       0.46113354       0.07494441      -0.38765663
C       -9.23486886      -2.34076263      15.02088729      -0.58898421       0.57807361      -1.20039048       1.47050023      -0.49265251      -0.97961301
C       -8.89780137      -2.70068355      13.54582999      -0.01703514      -0.18983680       0.71553821       2.09926271       1.51497495       2.21322274
O       -7.65741007      -2.94129896      13.31765282      -0.70935300       0.58300781      -1.45492318      -1.01865339      -0.37970477      -0.20188928
O       -9.75520905      -2.55006965      12.65179527      -0.31360253       0.47818737      -0.21813631      -1.11638951      -0.29585779      -0.88180232
H       -9.33633044      -3.29754412      11.52004189       0.04676882      -0.00510943      -0.25327422      -0.04374653      -0.67913640       0.17508453
H       -9.19345021      -3.25595277      15.59825871      -0.31555719       0.13894826       0.16846366       0.07563752       0.01301906       0.20263430
H      -10.17771171      -1.91305614      15.11044764      -0.08001890       0.08843477      -0.11221024      -1.74225390       0.72043008       0.10773914
H       -8.48581664      -1.62214333      15.43424410      -0.04435660      -0.03128729       0.01947674      -0.47267103      -0.67913055      -0.36720732
C       -1.57091197      -0.33133102      23.51994027       0.07588425       0.22383614       0.51201690      -0.21885920       0.20547737       0.38895005
C       -2.30176530       0.74413823      22.74194739      -0.81239562       0.99397227      -0.87112017      -1.59143949       0.80663455      -0.15963292
O       -3.56879283      19.72808048      22.71985570      -0.71810897       0.82132429       1.08165500       0.13895404      -0.34610552      -0.12516248
O       -1.74015304       1.76281581      22.19727685       0.19355045      -0.35166719       0.89313963       1.14242125      -1.50482428       0.39021665
H       17.11203286      12.45354784      12.24618019       0.04907266       0.28763671      -0.00453410       0.62083304      -0.13714373      -0.35000157
H       -0.98712404      18.23557269      22.85757287       0.09025071       0.21731268       0.31833078       0.48693508      -0.78894126      -0.88977420
H       -2.22792865      -1.02408859      24.10722290      -0.18654553      -0.25030645       0.14296720       0.51273310       0.83864927      -0.59735405
H       -0.80958122       0.12127820      24.12914898       0.02569627      -0.19223687       0.18979747       0.21438694       0.24528092       0.66931182
C        8.95983063      13.05680220       4.97662164      -0.19917723      -0.98449831      -0.35083322       1.46788335       1.65904891       3.06186867
C        8.90148246      11.69894171       4.53116580      -0.53468192      -0.29708488      -0.43077095      -0.91386938      -1.54454803      -2.41744995
O        9.24948011      10.76890247      24.40407987      -0.53427800      -0.08065174      -0.90169667      -0.18352933      -0.24071097      -0.31999606
O        8.41913788      11.52042500       3.26706982       0.39926518       0.10294922      -0.24649090       0.70606124       0.14563489       0.91837406
H       12.34968736       3.10343061      -6.87584540       0.02338701       0.02787257      -0.01426537       0.37567538       0.80603343       0.02139033
H        7.98713506      13.45132728       5.12850128      -0.10109969      -0.06613668      -0.21775417      -1.16629112       0.51940680      -0.53604174
H        9.54352142      13.73109552      23.47975344      -0.00430443       0.12225778       0.23784085      -0.23597044      -0.33459556       0.33941710
H        9.32887416      13.01053904       6.06924259      -0.15737939      -0.07256873      -0.06081735      -0.04672763       0.45460284      -1.83981013
C        3.59972360      32.76396138       7.62210597       0.52183765      -0.75090982      -0.10866499       0.95760536      -0.80972952       0.49873483
C        2.69226962      32.31110871       6.47734210      -0.21977148       0.68588968      -0.23517432       0.54181659      -2.26772118       2.49740171
O        2.66348861      32.93160347       5.42874151       0.43184622       0.67876373      -0.07941796      -0.24923882       0.64435309      -1.33036804
O        2.07545929      31.17828574       6.74779915       0.75033433      -0.02994703      -0.03040070      -0.21689057       0.41764545      -0.60042018
H        2.30999210      30.12679158       7.85820676       0.10474802      -0.01108310      -0.20771203       0.02640551       0.28262806       0.21209979
H        3.87782325      33.79104528       7.45219831      -0.02357276      -0.00020310      -0.02480591       0.07565241       0.27240446       0.27796516
H        4.55303175      32.12663581       7.73712592       0.15411876       0.42706603      -0.02008583      -1.29022539       0.78071386      -0.55057228
H        3.11921303      32.63623635       8.60434563      -0.33124717       0.15950869      -0.00009381       0.03705923       0.23420332      -0.45895571
C       15.73732671       3.94670177       4.73171419      -0.24070968      -0.23113695      -1.11114111      -0.83869565      -1.81014848       1.40981925
N       14.67897773       4.44102233       5.64192009      -0.27934609      -0.00765519      -0.80585110      -0.14443953      -0.42942539      -0.92494732
C       14.87873837       5.02142775       6.86684821      -0.06219182       0.26060889      -0.02811204       0.23893440      -0.71236992       0.41968784
C       13.80956612       4.69975699       7.67170122       0.75463919      -0.19931188      -0.22120568      -1.27514970       0.40934777      -1.89937019
N       12.84012806       4.05351834       6.82859645      -0.22293695       0.37314833      -0.02034672       1.05803311       0.51506281       0.05033311
C       13.40996870       3.94711984       5.60093218       0.42075492      -0.34171720      -0.80124910      -0.95682925       0.47026271       1.63383734
H       15.25620806       3.76451650       3.79311161      -0.16124098      -0.23382115      -0.42756798       0.00820652       0.01742751      -0.63857132
H       16.11758139       2.94050076       5.10910408      -0.03402891      -0.07840779       0.15958158      -0.38174185       1.31126308      -0.44437188
H       16.53156249       4.63445901       4.65594864       0.08617649      -0.09451218      -0.17511128       0.83430338       0.83404624      -0.11351199
H       15.76172151       5.61344599       7.01871890       0.03422716      -0.31310383      -0.01611299       0.05294788       0.05153520       0.29090977
H       13.53593991       5.15635443       8.62700902       0.01188070       0.06985337       0.28215767       0.20026411      -0.56223029      -0.33480027
H       12.81530688       3.74842279       4.69132517      -0.02443152      -0.21975658      -0.00770613       0.78011668       0.04748819       0.50696510
C      -12.53374917      15.04360645      49.12203695       0.73513664      -0.19768671       0.29274525       0.12035895      -1.33632720      -0.72575349
N      -12.81288463      16.34007607      48.50957682      -0.00976512       1.04461131       0.46054635      -1.08409643      -0.11021930      -0.18171719
C      -14.11548532      16.78111969      48.38305802      -0.47609002      -1.07482166       0.50899411      -0.73174858       0.44845209      -0.02689719
C      -14.05797149      17.96551001      47.66614845       0.43951709      -0.65658908      -0.55737833      -1.32278085       0.56529963       0.88255566
N      -12.74169528      18.28787995      47.45160511       0.44540192      -0.23693165       0.23403698       0.01980558      -0.66700310      -0.61421871
C      -12.03088238      17.24088109      47.86333197       0.15615115      -0.25304233      -0.33326773       0.75773233      -0.28895748       1.19533944
H      -12.34045701      -4.09457654      50.21135292      -0.32070334       0.16629248      -0.22166652      -0.24739113       0.43804613      -0.51622808
H      -11.64850721      -4.56057006      48.63265966       0.01268833       0.00697214      -0.07497274      -0.36880198       0.42938459       0.20564102
H      -13.40859526      14.35040504      48.89499591      -0.31777050      -0.06889471       0.30375572       1.07246399       1.06002998       0.39981997
H      -14.95732354      16.26289123      48.88255640      -0.25384193       0.09745206      -0.00828595       0.83106822       0.45132238      -0.56746024
H      -14.90799836      18.65526687      47.42656367       0.11356890       0.06740565      -0.09075596       1.14002991      -0.91508162       0.11170983
H      -10.94901187      17.14838957      47.84944605       0.20486200       0.18913423      -0.16340064      -0.28878456       0.05430194      -0.26265180
C       33.15463719      20.38728361       8.34540455      -0.03707796       0.51133018       0.79890483       0.28257519      -0.36165243      -1.47457385
N       34.59509495      20.59328966       8.34779999       0.37999764      -1.29146364      -0.21492737       0.93770534      -0.37432176      -0.62506914
C       35.49123582      19.87723204       7.51438961      -0.88808039       0.04715174      -0.80727531       0.23927823       1.51265693       1.40700150
C       36.68195725      20.54312997       7.65927837       0.03057794       0.41056102      -0.65168840       0.23657787      -0.10743314      -1.36820972
N       36.54966054      21.65886171       8.41195126      -0.24611965       0.71320621       0.09565034      -0.69707549       0.01432703       1.44308567
C       35.30439045      21.60878393       8.89904946      -0.65450100      -0.18796697      -0.09353784      -0.57826644       1.37524629       0.25091216
H       32.66499632      20.91141280       9.12665889       0.16835107      -0.29019428      -0.06592834      -0.20346650       0.58191651       0.80486125
H       33.02785163      19.32241120       8.47337842      -0.21510072      -0.25760329      -0.10829983      -0.38712868      -0.26783708       0.01130242
H       32.71780624      20.70533390       7.36313248      -0.15278482      -0.12400820       0.02855440       0.38160044      -0.22643700       0.81962550
H       35.23706136      19.15105089       6.78805828      -0.30074990       0.22167078       0.00185327      -0.56774807      -0.50695211      -0.17283200
H       37.59442340      20.42638333       7.10636898      -0.11923083      -0.05592056      -0.24621644       0.18698207      -0.43226063      -0.07462668
H       34.87890646      22.36546184       9.60197745      -0.02113710       0.06898662      -0.09621375       0.28247893      -0.92514658      -0.68694693
C       11.98634819      31.89742719       7.23287677      -0.45822332      -0.35189687       0.23582436      -1.11410439      -2.01389837       0.39872828
N       12.46659003      31.14604880       8.38930432       0.12681802       0.68680516       0.19421830       0.93019629      -1.64165592       0.15930510
C       11.78084975      30.92648590       9.58183137      -0.10291892       0.20150445      -0.13920145       0.72832274       0.27859947      -0.43633223
C       12.45418861      29.89543344      10.19661642      -0.08882832       0.19476407       0.40378059      -1.09227312      -0.80780256       1.37192678
N       13.46185582      29.38909294       9.40035786       0.72891858       0.25015027      -1.14898653      -0.15619688       1.14998150      -0.09291855
C       13.47596829      30.19772169       8.33895117       0.27680233      -0.13116490      -0.07858007      -1.20636308       0.41193795       0.10177204
H       11.56391256      32.75424716       7.67939318      -0.13617300      -0.39324336      -0.01299624      -0.47224271       1.27218103      -0.22300085
H       11.17726186      31.30573361       6.71654385      -0.08504392       0.01224944      -0.05307360       0.70206845       0.45853108       0.48621079
H       12.77955495      32.05544467       6.53878926      -0.05425981       0.31316390      -0.02997529       0.70162904       0.25440943      -0.22732463
H       10.93499874      31.55590875       9.84728304      -0.07295015      -0.16687566       0.03087799       0.27503276      -0.24491720       0.08888010
H       12.17672171      29.44694279      11.19326094       0.22729277       0.02487020      -0.12323795       0.61404049       0.52977389      -1.40030992
H       14.06176458      30.10630483       7.44559364      -0.01448425      -0.07116898       0.13185789       0.37749976      -0.11051267      -0.15089464
C       10.39475931      -2.61214193       5.66287497      -0.05410913      -0.05078166       0.50731022      -0.27182928      -0.09757605       1.33471465
N       11.77920710      -2.28863707       5.59460339      -0.00745888       0.04833277      -0.15632902       1.20023799      -0.71961892       1.33547318
C       12.35770599      -1.38854922       4.74747546      -0.50035962      -0.29759892      -1.25057887       1.68464398      -1.26542366       1.53662264
C       13.71628703      -1.42585513       5.01064545       1.23853498      -0.66595163      -0.64182833      -1.99000454      -0.37360582      -0.63565886
N       13.91481704      -2.37206284       5.97175225       0.03370783      -0.21184370       0.19859066      -1.06933653       0.44211870       0.52904427
C       12.71663981      -2.85431979       6.39811904      -0.59864362       0.72091796       0.73590925       0.61432463       1.48949277      -2.10368133
H       10.18901290      -3.31895260       6.47859196       0.09087495      -0.12937227      -0.02316708       0.26858881       0.32920438      -0.19102395
H       10.11290890      -3.04309769       4.75855174       0.40104167       0.06728268      -0.06287314      -0.67193407      -0.73430091      -1.61990452
H        9.86158031      -1.70543391       5.83961895       0.38248041       0.06435791       0.12398257      -0.59831071       0.43278217       0.10469482
H       11.80173755      -0.92129331       4.01321588      -0.17469652       0.27259240      -0.05236008      -0.81578481       1.00778317      -1.21390998
H       14.42004110      -0.88216256       4.44226491      -0.23166103       0.45427251      -0.46363664       1.15841687       0.38367608      -0.09863818
H       12.51511688      -3.37231059       7.29569792      -0.11138293      -0.02116774      -0.06613365      -0.10988876      -0.57917607       0.64843142
C       14.72074140      -2.89284920      10.63552583      -0.51271705      -0.28515084       0.36638299      -0.33775681      -0.63439173       1.24993753