640
Lattice="19.152215 0.0 0.0 0.0 19.152215 0.0 0.0 0.0 19.152215" Properties=species:S:1:pos:R:3:momenta:R:3:forces:R:3 energy=-80020.953125 stress="0.008305739611387253 -0.00044557437649928033 -0.0010255962843075395 -0.00044557437649928033 0.005139877554029226 -0.0003833347000181675 -0.0010255962843075395 -0.0003833347000181675 0.005182942841202021" pbc="T T T"
C        1.98989791      13.03119193       4.11056819      -0.32161295      -1.14537523       0.85306320      -0.54787105       1.90882874       0.75915098
C        0.77506044      13.55802483       3.41777722      -0.53102525       0.03254550      -0.92949195       1.16296911       0.78562576      -2.18037176
O        0.65331584      14.74935456       3.09982035       0.77178910      -0.58903523      -0.29897054      -0.28921103      -0.72063529       0.78108776
O       -0.03142107      12.64156316       2.93232746      -0.12437225      -0.45777693      -0.25410293      -0.58894235      -0.30651963       0.36486989
H        0.35291117      11.70771198       3.16408311      -0.06377113       0.00776912       0.36763959      -0.49151143      -0.23496610      -0.41853744
H        2.86648903      13.59991032       3.88534685       0.21025685       0.15875489      -0.22312700       0.42776507       0.39277238      -0.59639066
H        2.16742079      12.00801602       4.04100286      -0.06443852       0.15551036       0.03649843       0.12225877      -1.62401009      -0.18005817
H        1.80198416      13.30909596       5.12494152       0.23538469      -0.12104944       0.10356115       0.02798045      -0.12482235       1.28225231
C       25.72421161      -6.73220525      13.86785498       0.36134018      -0.21068768       0.05709615      -0.54822314      -0.80589986      -0.59660131
C       24.83577997      -5.94411045      14.72812432      -0.38947968      -0.55717707      -0.69481673      -1.45167637       4.15632534      -0.36401862
O       24.60906787      -4.68492383      14.46895583       0.25651671      -0.87312703      -0.38275115       0.67299199      -3.17348719       0.51906741
O       24.31605010      -6.55536241      15.75218824       0.26898483       0.21681854       1.06762109       0.38662064      -0.18427193       0.15427101
H       26.58538333       9.05866893       8.84851881      -0.07988538       0.28017699      -0.02621924      -0.07051240       0.23912054       0.05680317
H       26.61225007      -6.85115590      14.42023689      -0.14294716       0.17534600      -0.27327018       1.31517529      -0.61615789       0.91450733
H       26.07474317      -6.18246095      12.99998334       0.02980283      -0.13001402      -0.07367760      -0.51877487      -0.07163856      -0.17181389
H       25.31665724      -7.75102430      13.66333611      -0.14166252      -0.21489611       0.09517279       0.35089669       0.88341933       0.00171353
C        9.44698964       1.40429244      -0.82987791       0.76904399       0.41163318       0.22679333      -1.82554603      -1.43938529      -0.88552290
C       10.29129010       1.91278416      -1.91460638      -0.82564124       0.45848167       0.27657118       2.47638059       1.47238731       0.60053766
O        9.95689419       1.64374252      -3.14717541       0.48593293      -0.28774733      -1.16679129      -1.27518570      -0.94707757      -0.68169338
O       11.30317552       2.60289181      -1.67075469      -0.07254354      -0.03452779       0.00786603      -0.53763694      -0.33252648      -0.01384769
H       11.42365937      15.08317719       0.29472120       0.20946132      -0.00746521       0.01164118      -0.02710485       0.16003710      -0.50363398
H        8.41911882       1.76751997      -1.02122242      -0.04302103       0.16862610      -0.24007777       0.30793822       0.16749302       0.44670737
H        9.79579552       1.64960232       0.14961674       0.33698647      -0.06792704      -0.21563127       0.22486927       0.40536317       0.35505500
H        9.29748203       0.30318679      -0.90091565      -0.23230859       0.06894087       0.23276194       0.46504474       0.61308765       0.04120033
C       26.32174599      37.61655380      16.65845762       0.26794575      -0.06412888       0.83220874      -0.89245194       0.08562607       1.08569241
C       26.32949926      36.22332602      16.09647719       0.82140390      -0.68453165       0.48939451       0.81613398      -0.23918727      -1.18569815
O       25.11033245      35.61643569      16.11053982       0.57013463      -0.13150780      -0.33485484       1.24311674       0.04355890      -0.51258928
O       27.31890485      35.72349016      15.53670489      -0.09761654       0.56426051       0.19647800      -1.07319486       0.26272744       0.84729075
H       20.29283199      26.17126609      10.88026077       0.06906219       0.14633069       0.31263687       0.37234640      -0.04727918      -0.20154124
H       25.35163329      38.06688009      16.39257272      -0.32450842       0.07394334       0.35280645       0.30029383       0.05197182       0.18502215
H       27.11669538      19.12764462      16.34383276       0.11205952      -0.25380922       0.09432731       0.23122686      -0.31212765      -0.64392114
H       26.39438550      18.46740032      17.76891312      -0.26747385      -0.02666800       0.02494780      -0.25346670      -0.22800240      -0.66743171
C       26.97291333       3.91002451      26.10243930      -0.59599560      -0.01422519      -0.74380254      -0.49622077      -0.91891897      -0.97669977
C       28.22457807       4.40286925      25.48304705       0.56103831      -0.56426876      -0.36501684      -1.77116966       0.58851415      -0.90173882
O       28.16764802       5.04139228      24.41400924       0.04372032      -0.46085179       0.73093890       1.02067697      -0.36747679       1.01079655
O       29.26607043       4.05076610      26.18660957      -0.36742355       0.14108869       0.24289762       2.05475259       0.96971458      -0.72292846
H        8.18356625       3.44360307      30.13546130       0.04733733       0.03671211       0.04716160       0.81571150       0.60141331       0.38313529
H       27.07159139       3.74985249      27.14929583       0.00981536      -0.12592260       0.02917504      -0.02819063       0.17556867       0.89404559
H       26.83877994       2.89404075      25.69031879       0.12062227      -0.00726379       0.21390750      -0.19033557       0.20678806       0.02187246
H       26.10844520       4.50222670      25.80058318      -0.01530198      -0.06117122      -0.05485572       0.10332866      -0.01431692       0.27612275
C       -8.57106715      -9.96231256      13.45615626       0.87033604       0.35019275       0.09885391       1.89249563      -1.43779290       0.60027587
C       -8.37768864      -8.80636384      12.59491800      -0.43609368       0.09211473       0.07138011       0.30451632       0.33694178      -0.65364039
O       -7.10643681      -8.59924939      12.22884833       0.50322853      -1.10720786       0.85155826      -0.53862524       0.18434048       0.14142409
O       -9.34554054      -8.15317813      12.24011309      -0.52304183      -0.02208027      -0.43462601      -0.03689393       0.94698834      -0.54093879
H       -6.96569553      -7.63809116      11.82133271       0.10070579       0.06735936      -0.05999853      -0.05227339      -0.12786448       0.18423936
H       -9.32474853     -10.58069215      12.97630913      -0.22991850       0.16950794       0.03292519      -0.37997451      -0.07987890       0.57743019
H       -8.77607051      -9.59138610      14.46365039      -0.14224414       0.02392332       0.08256876      -0.44470268      -0.41439629      -0.18900399
H       -7.60997641     -10.54507522      13.51964206      -0.37173284      -0.23754067       0.30772263      -0.97589684       0.40759808      -0.04499354
C       23.96022968       9.89703965      -1.69718362       0.81287898       0.52191782      -0.37140997       0.88794446      -0.01163703       0.66732204
C       23.41636298       8.51153646      -1.37612494       0.02904176      -0.10138772       0.88057664       0.28019017       1.07676673       0.15405917
O       23.96448930       7.49245213      -2.02317327      -0.33123772       0.69551531       0.14606117      -0.12138754       0.02133930       0.14841259
O       22.49170325       8.39517594      -0.58186692       1.32037941      -0.49548730       0.42918538      -0.06773651      -0.46594784       0.02446902
H       14.12160343       1.03060467       2.67002145      -0.06891739       0.04464708      -0.19994985       0.54265690      -0.50217700      -1.10149884
H       23.28619540      10.31126468      -2.40731853      -0.06638546      -0.31633305      -0.15727393      -0.40254256       0.51338798      -0.96606410
H       24.99102358       9.95169148      -2.11814205      -0.29838173      -0.03724478      -0.12666928      -0.85933822      -0.32204118       0.31457812
H       23.87534412      10.59354770      -0.85012860       0.23121423       0.22187866      -0.08888478       0.11080184      -0.55202347      -0.06138988
C        4.39615850       4.92504373      11.73013612      -0.17636522       0.17164591      -0.16278372       1.20126247       0.12036447      -0.54002255
C        3.00555905       5.45961100      11.78492657       0.49448796       0.11097361      -0.47218173      -0.58069843       0.22460920       0.87643933
O        2.60872847       6.38883034      11.07858057       0.21941355       0.05337081      -0.86909892       0.60578275      -0.31264770       0.10916317
O       21.37335359       4.90817446      12.72818564      -0.75497278      -0.47419172      -0.93994919      -0.78090012       0.22845182      -1.36206126
H       -0.93985508      -1.69875365       5.92160990      -0.01638146       0.06857277      -0.00574781      -0.76965654      -1.02588868      -0.37194544
H        5.01353663       5.28979872      12.58313908      -0.04649263      -0.05389184       0.00628933      -0.58612651      -0.23215762      -0.30424717
H        4.87494883       5.34614611      10.81854125       0.01283821      -0.09008332       0.17637685      -0.28499928      -0.38869527       0.52019322
H        4.47133159       3.81403962      11.72203811      -0.03508620       0.15382498      -0.07487717      -0.34534055       0.69080299       0.01901127
C      -17.56378425       1.21528002      -7.34244396      -0.17287472      -0.28896214       0.83771818       0.97154617       0.47136688      -0.09929679
C      -16.16004977       0.71009229      -7.09061388       0.33103272       0.18237685      -1.70466898       0.70303005      -0.81132716       0.36112291
O      -15.23221146       0.92161568      -7.90163925       0.18226029      -0.28730450      -1.93010982      -1.01391768       0.41649839       0.81003380
O      -15.95727117      19.15828970      -5.99287653      -0.05259853       0.35498708      -0.48479457      -0.66265994       0.78734410      -0.35053253
H      -17.02030584      19.10758211      -5.16962144      -0.11879635       0.09529338       0.33073177       0.05012518      -0.49652708      -0.38780373
H      -17.69964094       2.12897532      -6.76761598       0.00909032      -0.25723718      -0.14553872      -0.31413078      -0.10652579       0.57381916
H      -18.26645200       0.42759782      -7.11809871       0.25624078      -0.16329340      -0.29371854      -0.39655226       0.08287954       0.09958309
H      -17.65143199       1.57888697      -8.34911171      -0.16295648      -0.26747770       0.19859243      -0.05657302      -0.31406790      -0.62777734
C        1.36685491       6.05014215      -2.02663987      -0.05946150       0.69885338       0.60061184       1.63576508       0.29486826      -0.35629463
C       19.39817005       6.15522564      -1.10563951      -0.35477108      -0.67051631      -0.81527966      -2.27016211      -0.29190719       0.20270169
O       18.21000000       6.22474683      -1.74012221      -0.99937551       0.47818512       0.79567838       0.24652421       0.40708807       0.93087101
O        0.32751105       6.13172558       0.13004939       0.13412183       0.23088816       0.35221632       0.22686613       0.38395861      -0.66614109
H       14.55280225       9.44338263     -11.18122026      -0.12343125       0.15836261       0.13548631      -0.51477253      -0.64946884      -0.57704329
H        2.12046257       5.39488455      -1.60153249       0.03236045       0.33729203      -0.04378935       0.39424816       0.36037147       0.37231863
H        1.78081904       7.07351097      -2.17646275      -0.05782817      -0.01269463      -0.12416244       0.05274230      -0.76155919       0.13615534
H        1.16556382       5.58372535      -2.97903559       0.13420724      -0.10130635       0.02242417      -0.66946512       0.27691242      -0.36273491
C       29.63066654      31.46874922      -2.44957462      -0.08699284       1.32021208       0.09622300      -3.03713560      -2.52300763       0.56654370
C       29.60656316      29.94889240      -2.25114545      -0.24381896       0.67765434      -0.29700711       1.23359120      -0.78081942      -0.32469207
O       28.54692501      29.50415680      -1.55965747       0.28310993       0.64161240      -0.58697113       0.52900124       0.78000546      -0.37133902
O       30.53514396      29.21415908      -2.67368654       0.62951336      -0.37352700      -1.24379162      -1.43971145       0.84254235       0.77996898
H       17.41792452       6.36328101      -0.98356351       0.04573908      -0.02806742      -0.11684577       0.39989948      -0.40425178      -0.30826393
H       28.54303546      31.72554352      -2.57558249       0.17644496      -0.31760411       0.00759616       1.11494541       0.44498378       0.60260332
H       30.10085634      31.66198119      -3.34768006      -0.08328116       0.08609827      -0.16334347       1.28975725       0.55352008      -1.68339527
H       30.13794727      31.85282568      -1.60141504       0.10109624       0.13021780       0.13331552       0.18332937       0.94973040       0.66295570
C       -4.98093601      -2.05108593       9.52766957      -0.17160266       0.58894293      -0.62037247       2.23526859       1.19456911      -1.19104195
C       -4.21559745      -3.31524187       9.18098844       0.18761064       0.24022684      -0.04756248       0.84790200      -0.73104703      -1.56929481
O       -3.05607951      -3.35083770     -10.49310990       0.40638505      -0.78401060      -0.34420367      -2.58357453       0.10531896       1.67320681
O       -4.92620529      -4.46597334      -9.83661629       0.63229502      -0.76866446       0.01703242       0.37624174       0.88060504       0.65164995
H       15.05956540       2.39708928      13.35338473      -0.02264989       0.05520988       0.02348328      -2.27599907       0.43178117      -0.40257406
H       -6.01509436      -2.20954290       9.78653993      -0.16900158      -0.23939192       0.06643261      -0.14085947      -0.13763261       0.22064695
H       -4.88374129      -1.40862134       8.58394394       0.13786270       0.17512675       0.02852484      -0.37709397      -0.79049969       1.13736141
H       -4.36936139      -1.49249712      10.28356867      -0.10830370       0.00699062       0.09572138      -0.76846540      -0.61295450      -0.30677587
C       -6.97303292      -5.14811776      13.34338142       0.43278505       0.15973100      -0.03067738       0.30936596       1.22643423       1.60856223
C       -6.70121831      -5.24537330      11.88941137       0.09976336       0.91996837      -0.35894404      -0.05411926       1.11871350      -1.01785779
O       -6.50971352      -6.38596032      11.34958280       0.57509489       0.20722906       0.79580163       0.11803675       1.27673090      -0.35940695
O       -6.65710627      -4.09212490      11.26903885      -0.17352218      -0.02561661      -0.41744621       0.34223711      -2.10415602       0.18428969
H       -5.65595409      -4.35443276      10.05943784       0.20225532       0.25083613       0.13714964       0.26296437       0.05345026      -0.29600453
H       -7.87333920      -4.53175851      13.56197470      -0.21808742      -0.11690871      -0.16799342       0.38743308      -0.49026135      -0.41193730
H       -6.14152512      -4.52484491      13.83452914      -0.22294418      -0.05783778      -0.08549163      -1.03448606      -1.19821286      -0.50200337
H       -7.08514211      -6.12341653      13.82506467      -0.12200457      -0.07482167       0.02921643       0.20708592       0.19322862      -0.02779162
C       -4.87924582       1.36088981      18.07978002       0.65290196       0.58682983      -0.21572288      -0.19610396      -0.24513426       1.53426397
C       -3.98050222       1.51807746      19.31265932      -0.13367304       0.68572322       0.69939029       1.42939472      -0.71281898       0.92998171
O       -3.80614045      19.76394925      20.24781066      -0.59126559       0.27895432       0.10846444      -1.36987352       2.01386595      -1.96730709
O       -3.29513419       2.61807713      19.26207416       0.36200777       0.55752124       1.20625021      -0.95086420      -0.83896118      -0.15539387
H       20.07385216      13.33241055       9.08452555       0.16143366      -0.10812420      -0.03676876      -1.58769321       0.58332080       0.52652311
H       -5.86496537      20.98321206      18.29048486       0.01725398       0.17604863       0.07474819       0.44206774      -0.50331342      -0.15800241
H       -4.97586029       0.31492528      17.80369054       0.22324454       0.07302600       0.31880417      -0.31385270      -0.05909415      -0.02899474
H       -4.43978932       1.91448658      17.27202548       0.02173834       0.06685205      -0.09823143       0.21628191       0.20758465      -0.37329194
C        6.35605285      15.19434754      -0.12909760       0.04749063       0.56503038       0.61689033      -0.87910080       0.02697912       0.42285991
C        5.65967357      16.54987287      -0.01161519       0.30984148       0.25557523      -0.69301783      -0.06758249       0.47586825       0.11941338
O        4.48562288      16.72017221      18.81307886       0.20873246      -0.36881374      -1.33408878       0.73259473       0.05840343       0.38899556
O        6.36021235      17.60323730       0.50058466       0.08006484      -0.46980713       1.18946400      -0.54836094      -0.84236038      -0.42938864
H       10.59019572       2.03907026      -3.85810695       0.12034368       0.15139485      -0.15573273       0.44499403       0.42074510       0.15785277
H        6.05120874      14.57399162       0.74625661       0.00665895       0.19352265      -0.01093458       0.23563766       0.44128215      -0.51104462
H        7.42404065      15.33183501      19.04405125      -0.07842094       0.00711108      -0.07111892       0.39076817      -0.21426788      -0.11437577
H        6.00845384      14.65519206      -1.03528540       0.15284505       0.02246620       0.29515621       0.28917038       0.53951597       0.47090298
C        3.38803434      35.15773699       8.15933240       0.83841069      -0.18432003       1.15544107      -1.04372215       1.60666955       0.13209361
C        2.78705093      33.87845070       8.52441585      -0.41011327       0.40119688      -0.10407495      -1.58284664      -1.84403205      -0.98869431
O        1.67861097      33.41901482       8.02688030      -0.07010717      -0.01881582      -0.74582286       0.89349377       0.68825382       0.42757398
O        3.48695257      33.17586069       9.30201699      -1.23788705       0.87787495      -0.96552413       0.65247113      -0.86889136       1.06284595
H        3.15553122      31.67187483       9.13419319      -0.18519137       0.20910399      -0.06117185      -0.74321055      -0.06557202      -0.11236674
H        3.81094851      35.55074292       9.06980305      -0.17773941      -0.13125765       0.22192361       0.79623556       0.04535711       0.04764546
H        2.65795854      35.92117190       7.90227309       0.14679534       0.00917805      -0.21290908      -0.31875905      -0.11969704      -0.47052357
H        4.10198189      35.05111708       7.34558690       0.10488670       0.26319911       0.02668569       0.34275940       0.09190634       0.12195218
C       15.45076052       6.73573838       5.41674403       0.06418698       0.55465234       0.85042958       0.95711350      -1.33075237      -0.35915580
N       14.26258743       5.91309874       5.36335882      -0.17597961      -0.19631210       0.98152305       0.39351007      -0.23737957      -1.07423878
C       14.13445371       4.91139274       4.41115516      -0.29442201       0.44839552      -0.16839972      -1.78043664      -0.14648730       1.41390502
C       12.94154476       4.26259061       4.72562582       0.28459708      -0.69169912       0.09275568      -0.09051907       0.74558216      -0.16361338
N       12.40666728       4.84905053       5.90197105      -0.07742690      -0.36751182       0.20868762      -0.02441552      -0.56390637      -1.71698236
C       13.17913935       5.88240512       6.16596715       0.08557264       0.02605098       0.01453845       0.18120599      -0.53950953       0.34739071
H       16.29854052       6.18143951       5.84092793      -0.11981110      -0.14790079      -0.08439136      -0.23579443      -0.34639907      -0.03575152
H       15.27153522       7.47602165       6.14490808       0.06805051       0.21198821       0.06177223      -0.16364883       1.62438202       0.15608731
H       15.79592044       6.97234793       4.38318540       0.45348719       0.17023879       0.03493102      -0.65026456       0.56097782       0.85752869
H       14.85173327       4.84713860       3.62941925      -0.19721614       0.19078182       0.16384760       0.24739434      -0.31293494      -0.45169783
H       12.29563943       3.69178058       4.02834477      -0.05545852      -0.18434752       0.01458462       0.63468844       0.25037113       0.90399140
H       12.92617063       6.58925602       6.91842198       0.08533147       0.17366610      -0.14128699       0.28941339       0.62874067       0.37666738
C      -12.66510359      13.16026591      48.38007298       0.28369206       0.20343363      -1.15406831      -0.29754353       0.03034022      -1.91620409
N      -11.54488192      14.08240021      48.01687041       0.25503724       0.30581790       0.97136041       1.14347982      -1.00371766       2.27875090
C      -10.29305124      13.97200653      48.65189661       0.96998212       0.80476229      -0.67984524      -0.76674867       0.15770757      -0.41699982
C       -9.39625747      14.80296060      48.04049909      -1.51018141      -0.29663248       0.43632177      -2.41517162      -0.94297564      -0.71690971
N      -10.09707075      15.35682137      46.97853129       1.44971662      -0.47184621      -0.09069341       1.47979808       1.86569500      -0.06602699
C      -11.35539044      15.02394453      47.09143636      -0.45700647       0.06783603      -0.20729582      -0.77781558      -0.14637393      -2.11630964
H      -13.54865099      -5.66342535      47.68417425      -0.12495831       0.06712747       0.12420720       1.51702702      -1.08114648       1.32931733
H      -12.95413272      -5.81348510      49.43047593      -0.03012488       0.24223170       0.09463035       0.14924216      -0.15399043      -0.51848209
H      -12.28570569      12.05410770      48.21460038       0.16975661       0.10714994      -0.00536320      -1.05361938       2.25807977       0.26539898
H      -10.24371665      13.39167745      49.51493302       0.28729575       0.01680656       0.49809319       0.32003692      -0.94251966       1.15445459
H       -8.46545177      15.12936389      48.41679818      -0.32019577       0.31112733       0.15357826       0.89684135       0.20993060      -0.13042647
H      -12.08633503      15.39341323      46.38336840      -0.01178881      -0.24052811       0.24789566      -0.27678052      -0.17115560       0.32937071
C       24.49257599      18.77388363       9.27712260      -0.04627145      -0.43483700      -0.18641503       2.41001034      -0.69911075       0.21689518
N       25.73856588      19.54643628       9.59195106      -1.31550896       0.48909637       0.95953505      -0.16730283      -1.36954045      -0.47982776
C       27.05954029      19.38952151       9.11160965       0.15723404       1.00965110       0.30897435      -1.60243893      -0.44645116       0.36127192
C       27.69301141      20.48201486       9.61112196       0.80547397      -0.83014658       0.30925606       1.28838122      -0.00056589      -0.29853526
N       26.88654830      21.20138881      10.45716073      -0.37948631       0.23216088       0.14645062       1.53398538       0.53361839      -0.05439702
C       25.75082863      20.56414874      10.45159498      -0.54431287      -0.55918788      -0.16003405      -1.87197375       0.78453553       0.38245448
H       23.68927176      19.36907596       9.61571850      -0.01126282       0.13669381       0.03797802      -0.92043245       0.53639925      -0.23631650
H       24.51350188      17.86558916       9.89470312       0.05226644       0.33670155       0.17234648      -0.05367196       0.09859449      -0.31153691
H       24.49548219      18.51182812       8.22039705       0.01009647       0.10887462       0.02879216      -0.14914434       0.14172529       0.02307034
H       27.43179906      18.41750484       8.76818138       0.22213091      -0.05161029      -0.02193611      -0.23870578       0.59293956      -0.00306698
H       28.70512237      20.74661319       9.36483089       0.09533681      -0.01597175      -0.11049778       0.09864956       0.32400030       0.07658967
H       24.88377944      20.88799607      11.02337218      -0.03217701      -0.06201895       0.01759347       0.26588333      -0.37613618      -0.23965797
C       18.19169816      31.64187021       6.17832978       0.11550421      -0.61127672      -0.34192302       0.51923352       1.11975980      -0.33222234
N       16.98720942      31.22075682       6.85758699       0.63991413       0.22190364       0.23638675       0.82522917      -0.45355150      -0.76028246
C       16.23660578      31.87363282       7.81519015      -0.12054927       0.18671158      -0.65437230      -0.56159627      -0.53453535      -0.01840486
C       15.42936010      30.83924409       8.29609202      -0.29116307      -0.42852535       0.16482084       0.93545341       0.58929920      -0.95189261
N       15.65131601      29.66860703       7.60950410      -0.98403411      -0.43043234      -0.33062417      -0.63140750      -0.09772156       0.68847471
C       16.60705128      29.92360803       6.74819266       1.26262563      -0.47623649       0.35680455      -0.31727844       0.70543510       0.45959207
H       19.10256970      31.47620657       6.78759331       0.18139009      -0.21164677       0.14917040      -0.43055779      -0.43139496      -0.44958103
H       18.17056639      32.72237767       6.07170799       0.13271693      -0.04546657      -0.32774563      -0.18062612       0.26439273      -0.08522919
H       18.22036125      31.23449510       5.14046679       0.02702106       0.12998914      -0.05227341       0.18463990      -0.01696652       0.97502625
H       16.23299169      32.99223535       7.94936217      -0.06880762       0.29510618      -0.12245383       0.12063335      -1.54281664      -0.18420127
H       14.73395004      30.78836328       9.06755604      -0.18156481       0.16471688       0.14382433      -0.97363544       0.59806359       1.25350642
H       17.04450718      29.21796967       6.08145011       0.11600177       0.01973884      -0.10374001       0.28122514      -0.11984743      -0.36084610
C       12.45589246       0.87644340       9.98764263      -0.99122498       0.77329920       0.39909868       1.08459771      -0.04404020       0.93982935
N       13.62148113       1.68122155       9.54000925       0.27315173       0.02639067       0.40298458      -2.45196915       0.37491226      -1.89584184
C       13.47187789       2.66985350       8.55068557      -0.53791818      -0.39418492       0.42778175      -0.26744002       0.50049883       0.14273113
C       14.73170625       3.05393099       8.19907251      -0.52371591       0.17514718      -0.10005199       0.42152208      -0.96754789       0.71598768
N       15.65734544       2.24359465       8.87775120      -0.38142898      -0.83409852       0.55952602      -1.14035630       0.45102525      -0.89116645
C       14.91684811       1.40604349       9.58390993       0.17032783       0.26126182      -0.35608905       1.63484681      -0.76359171       0.97275031
H       11.55525462       1.49072078      10.00564414       0.18651292       0.10306200      -0.08161871       0.27567953      -0.05631652      -0.32552704
H       12.65513953       0.58478831      11.01446968       0.17757113       0.05212502       0.11723664       0.04900026       0.16573125       0.28651801
H       12.34956929      -0.06346747       9.44568450      -0.12446983      -0.01388112      -0.08212235      -0.07427558       0.45493805      -0.43142462
H       12.51606883       2.99281169       8.10946528      -0.10626982       0.01374136      -0.23263227       0.51528186      -0.40338084       0.58379889
H       15.06134877       3.83284813       7.55485069       0.29453991       0.06365146      -0.09368258       0.16448811       0.33690536      -0.34341657
H       15.34339681       0.52111405      10.03912837      -0.05423431      -0.11844206      -0.15118017      -0.20760781       0.13757375       0.18699512
C       16.32198714      -5.29798317      11.79310722      -0.29940878      -0.57198345      -0.82191275       0.20816866      -0.36317092       0.27746406