640
Lattice="19.152215 0.0 0.0 0.0 19.152215 0.0 0.0 0.0 19.152215" Properties=species:S:1:pos:R:3:momenta:R:3:forces:R:3 energy=-80020.40625 stress="0.0022869391832500696 0.0009432173683308065 -0.001171586336567998 0.0009432173683308065 0.0021168896928429604 0.0013743736781179905 -0.001171586336567998 0.0013743736781179905 -0.0005500552942976356" pbc="T T T"
C        2.97555453       9.49957767       0.82688160       0.63383731       0.02252262       0.04059549       0.57004189      -0.02690161      -0.08729173
C        4.15307882      10.37657148       0.32711306       0.81414815       0.40277634       0.24178296      -2.34815073      -1.46511149       0.04145956
O        4.59277557      11.23355930       1.06478358       0.09797216      -1.36830957       0.63058941       1.05249429       1.19809639       0.63496119
O        4.57296229      10.18518592      -0.89164427       0.40469619      -0.81209290       0.45731309       0.59709787       0.36423826      -0.47188568
H        3.85139594       9.68302151      -1.51092199      -0.06289311      -0.13425064      -0.02161662       0.00416887      -0.33009267       0.30082822
H        2.06616935       9.44176592       0.20766457      -0.04121603      -0.20124747      -0.10619667       0.74487221       0.32742125      -0.06793885
H        2.73177361       9.83545158       1.83318036      -0.02343318       0.03007395       0.18514162       0.00687709      -0.04491932      -0.19377249
H        3.37854899       8.48111267       0.91587469      -0.19640704       0.10122022      -0.12908359      -0.26769483       0.04352048       0.01661472
C       21.59712781       0.90923738      17.06947005       0.53809180       0.07718322      -0.86615163      -0.04148323       0.96178973      -0.58778000
C       21.96125386      -0.46179728      17.45892598       0.37509053      -0.30600071      -0.07099239      -0.03397417      -0.42402267       1.22158146
O       23.18197086      -0.81358163      17.21273404       0.61520926      -0.08098563       1.50999090      -0.30010539      -0.36294436      -0.04407570
O       21.11171165      -1.16174948      18.08502779       0.96370733       0.15578425      -0.05609721       0.17956096       0.13278043      -0.45146140
H       27.94592563       8.81364337       7.45170875      -0.24709201       0.01881017       0.08750037      -0.15751851      -0.26636279      -0.12944141
H       22.41235061       1.59310874      17.31868640      -0.21493654      -0.12550552       0.14315705      -0.01515726      -0.06888011      -0.02147634
H       20.67533805       1.31324044      17.48760903      -0.13828305       0.07153130      -0.04433358       0.08517462      -0.43463588       0.22587515
H       21.48935241       0.94337035      15.98603981      -0.03752346       0.09773288      -0.10883493       0.03999570       0.07561390      -0.19024225
C        8.83808229       1.28630939      -6.26237755       1.01133944       0.12740944       1.71674795      -0.09581339       1.13597715       0.81009936
C       10.10299828       1.99408509      -5.77366692      -0.04160337      -0.55146974       0.58172268       0.64679694      -0.74870324      -0.57324266
O       11.20167090       1.45073172      -6.33362550       0.92818345      -0.80943073      -0.11754481       0.14164627      -0.55967689      -0.48881936
O       10.14870903       2.93844777      -5.00960302       0.48253583      -0.01263531       0.20550785      -0.42135733       0.27711976       0.30851945
H        8.32050643      10.76276764       0.12333174       0.26129877      -0.15489270       0.17650015      -0.12407193       0.71676272       0.01195669
H        8.89953404       0.22666826      -6.25450916      -0.05833604      -0.26905661      -0.23327720       0.73431230      -0.64642560      -0.17617029
H        8.65169678       1.60001358      -7.27693383      -0.23374909       0.01138184      -0.11602707      -0.11639047       0.08950140      -0.42955488
H        7.95090388       1.50717340      -5.65565185      -0.13221098       0.19091605      -0.08197983       0.42055005       0.45586109      -0.21450287
C       25.18700070      34.90963453      17.81616149       0.03066129      -0.27027441       0.79637015       1.10997629       0.21787867      -2.35056305
C       24.80648809      34.64971139      16.30846475      -0.53424946       0.61069986      -0.28356306      -0.77794361       0.94990015       1.13076651
O       23.89050267      35.46983473      15.78339698       0.55613507      -0.00942581      -0.09471525      -0.88226449       1.07736206       0.79089558
O       25.21922097      33.79853820      15.55581011      -0.07765262      -0.14716727       0.37546824       1.14545047      -1.08091354       0.27626514
H       14.62570913      27.00247728      13.49667868      -0.09513638      -0.16521339       0.49446944       0.45841753       0.61583543       0.09745211
H       26.29825934      34.87158684      17.82327475       0.06209626      -0.14386105       0.07290005      -0.70016700      -0.01148120       0.20339388
H       24.83990384      14.94508448      18.43878668      -0.01826314      -0.22102609      -0.17448828      -0.32862198       0.10230286       0.30987996
H       24.88749080      16.78779552      18.10410583      -0.03711890      -0.06599424       0.09689546      -0.11532842      -1.04470229       0.16376519
C       26.32177945       2.25341675      24.12250907      -0.69954488      -0.89546149      -0.22075809       0.58287835      -1.91112876       1.69982338
C       27.41701245       3.17392569      23.81358361       0.44685518      -0.19408777      -0.32566926       1.29428720       1.75195611      -2.05240870
O       27.65513410       3.68062779      22.69315550      -0.30341966      -0.23606614       0.02421796      -0.78038263      -0.83260554       0.81400430
O       28.22549758       3.43069124      24.81289930       0.10182202      -0.37237392      -0.28945171      -0.31263319      -0.95038188       1.32284534
H       16.85031377       4.73220675      25.64511444       0.08319836       0.18546699       0.18816679      -0.18277514      -0.15401097       0.39883369
H       25.37560562       2.48925334      23.69144951       0.23989002       0.09248082       0.11328095      -0.49104226       0.27892840      -0.55372226
H       26.24062127       2.11348408      25.22767515      -0.15903898      -0.02327835       0.26595342      -0.07635482       0.38715914      -0.80906689
H       26.65247208       1.23707184      23.80062923      -0.24938763      -0.09597732      -0.05815072      -0.42498454       0.59350872      -0.12958483
C       -4.79324823      -4.59005963      15.57059247      -0.40386032       0.08310445       0.15968935      -0.92411304       1.94798541       0.38281149
C       -6.07675971      -4.79553094      14.84977187       0.95372462      -0.24363690       0.09838216      -0.24586864      -0.18588316      -0.77979302
O       -6.50041462      -3.75229161      14.23928434       0.84467573      -0.11938402      -0.20385777      -0.84143448       1.09837031      -0.49408472
O       -6.69902940      -5.88670002      14.85941607       0.36448229       0.91435691       0.57701645       0.24316585       0.17428231       0.31263462
H       -8.01206876      -3.08890840      14.62937967       0.07088469       0.33755582       0.20686530      -0.34892166      -0.42945039       0.07600173
H       -5.00324127      -3.62811611      16.11910956      -0.25313988       0.12182851      -0.16906344       0.43536520      -1.39070618       0.47300160
H       -3.93375972      -4.25664744      15.00666588      -0.35903020       0.22679982      -0.17127785       0.04609623      -0.46402907      -0.82962567
H       -4.61511792      -5.48235172      16.09987991       0.03624494       0.22683256       0.11369460       0.61595351      -0.60748285       1.19616151
C       20.66922518       8.59728425      -4.03636727      -0.26642433      -0.79474886       0.56703281      -0.50603056       2.08205318      -0.91365993
C       21.86748757       9.16722107      -3.35898786      -0.66340201       0.31319076      -0.32573173       1.02131939      -1.02504015      -0.38929796
O       22.75559763       9.67406043      -4.13835745      -0.09646405       2.03702252       0.56551091      -0.27026963       0.03392493       0.61359525
O       22.03416172       8.97224853      -2.11376901       0.54460100      -0.55977074       0.16723275      -0.53979188       0.20194495      -0.11414880
H       15.05035065       2.62608421       0.91448913       0.17408901      -0.20533740      -0.28027973       0.72231668      -0.24693729      -0.09586790
H       19.74127333       9.08271273      -3.71725580      -0.27065600       0.12096527      -0.30542952       0.06373131      -0.33806610       0.65846455
H       20.58517287       7.52751244      -3.96539193       0.29224813       0.14136391       0.34337257       0.10077100      -0.36109254      -0.17222378
H       20.75112769       9.04852777      -5.03658392      -0.22769358       0.01557383      -0.16001615      -0.15080449      -1.10941601      -0.16330686
C       -0.92460572       6.93786095      12.69727848      -0.86508089       1.00908618      -0.23864922      -1.06539798       1.30359983      -0.82072955
C       -1.74995773       8.19668771      13.14747148      -0.44923063       0.60266837      -0.77172982      -1.08574140      -0.61977613      -0.52022225
O       -1.26101409       9.32308684      12.81071635      -0.04086011      -0.48721547      -1.33476586       0.62611544       0.33397436      -0.14754429
O       16.24651419       8.11951020      13.68178734      -0.78340729      -0.47113149       0.00505289       0.92225707      -0.61711228       0.08759689
H       -1.88975036      -3.78997432       8.53530886      -0.09322217      -0.42551709       0.25613869       0.18435484      -0.24328569       0.28234714
H       -0.29973271       7.32249446      11.85162734      -0.10823469      -0.02579605       0.24381991      -0.63286746      -0.81554240       0.48348153
H       -1.58690000       6.07175388      12.44198745       0.11551281      -0.05597716       0.04698476       0.50181890       0.96305799      -0.13528702
H       -0.25497381       6.60897887      13.45598700      -0.17198431       0.08338025      -0.11619246       0.53521466      -0.16375217       0.79335850
C      -19.15186241       0.79370840      -6.82504356       0.02929148      -0.62660507       0.24643343       0.80077374       0.10230207      -1.37413049
C      -18.32235712       1.85563181      -6.13707919      -0.43691920       0.77411599       0.42283133      -2.81752038       0.79268456       0.35972321
O      -18.98983898       3.01667266      -6.05674732      -0.01777639      -0.50291308       1.16714193       0.73102641       0.07150584       0.01017094
O      -17.27594428      20.77579230      -5.57959986      -1.46846322       0.52770786      -0.28954906       1.66171229      -0.21786770       0.44086117
H      -18.41316015      22.99079796      -5.48682954      -0.05785345       0.04748425       0.38879718      -0.02619752      -0.77437431      -0.19472361
H      -19.38192717       1.15708823      -7.84815470      -0.07227360      -0.06585185      -0.14390881      -0.06573524      -0.15886909       0.52385908
H      -20.08949952       0.61023008      -6.32869966       0.14387482       0.24218441      -0.21822977      -0.32369685       0.05544146       0.26993990
H      -18.59486311      -0.14290520      -6.94457137      -0.05118527       0.11755480       0.12068425      -0.07451513       0.23085675       0.24290383
C       -4.17626295      11.13201711       1.14640720      -0.00612039      -0.06811407      -0.28182293       0.10248344       1.78001523       3.00073600
C       15.56680975       9.86624780       0.83220586       0.26985861      -0.18723157      -0.19937877       0.08767903      -2.66285300      -0.06692582
O       15.39542393       9.65228385      -0.44063466      -1.21845741       0.48123709       0.32920810       0.58338970      -1.99137664      -0.88627380
O       -3.15218716       8.98364210       1.61824056       0.61372072       0.51634513       0.43160360      -0.00499773       0.98274773      -0.35414857
H       14.36327374       8.78301908      -8.95627423       0.06852748       0.17821475       0.22346095      -0.47459760       0.76997125       0.11855950
H       -3.58169025      11.89796954       0.66374979       0.03324227       0.00155343       0.22859594      -0.23812965       0.29413557      -0.40399009
H       -4.13961825      11.36392626       2.26416330      -0.14921662       0.01851763       0.06089793      -0.39605767      -0.37713030      -1.41210377
H       -5.18352987      11.05947510       0.74763512      -0.18696902      -0.06886640       0.08900260      -0.14170796       0.66555971       0.17764869
C       31.29861978      23.51129960      -2.80230549      -0.06907883      -1.04402041      -0.24227120       1.68945861      -2.71258140      -0.31917080
C       29.99999841      23.58723781      -2.12624169      -0.02361541      -0.14708253      -1.24152159      -1.15295041       2.67320919      -0.96104944
O       29.28578525      24.68547751      -2.47168462       0.30424655      -1.38206231       0.27241060      -0.50090539      -0.75092155       0.55419248
O       29.60292977      22.77594161      -1.31305353      -0.28396894       0.53862928       0.21817296      -0.39230871      -1.19189489       0.67910445
H       15.51212473       8.48243476      -0.66868098      -0.33226092      -0.10519212      -0.22690527      -0.11858571       1.10766721      -0.48258910
H       31.24665989      22.91002767      -3.74462099      -0.04816193      -0.13537519      -0.28398454      -0.43195182       0.57857108       0.50772595
H       31.95967283      22.86788236      -2.18423419      -0.28489420       0.07070981       0.01704426      -0.40407914       0.35592431      -0.14987099
H       31.88480838      24.37051433      -3.02447112       0.10112996       0.07979121       0.10500821      -0.19290893       1.20098495      -0.09142752
C       -6.07517518      -1.41188577      11.84968829      -0.61178918       0.29552730      -0.89759454      -0.40179527       2.13406086       0.08950599
C       -6.21650297      -2.59788643      11.01764184       0.50460201      -0.62307196      -0.21970536       0.49824777      -2.15979004       0.25344491
O       -5.99960549      -2.63272265      -9.33388660      -0.04412119      -0.92641420       0.01689755      -0.05861206       0.13404992      -0.24602020
O       -6.51295172      -3.77191381      -7.49158677      -0.63223181      -0.46154173      -0.69311349      -0.06198786       0.84513533      -0.54632223
H       14.44084721       0.70572818      13.71403658       0.24764044      -0.09868353       0.05805640      -0.21519622       0.19132102       0.43843335
H       -6.86864849      -1.44423257      12.57403830       0.23291123       0.12357476       0.10886328      -0.47340292       0.25227594       0.46957958
H       -6.20947820      -0.47314913      11.24668030       0.13360857      -0.12136060      -0.00012200       0.08442714      -0.95618832       0.48174536
H       -5.16224289      -1.27910102      12.42886337      -0.18165459      -0.11655391       0.11042140       0.19768143      -0.45059112      -0.25677359
C      -10.94426751      -1.85748502      14.10805274       0.59256243       0.24903212      -1.02393988      -0.33597475      -0.21724145      -0.81027752
C       -9.76075148      -2.69380622      13.85014043      -0.18955724       0.29344001      -1.15455373       0.72172207      -0.85950720       0.00041270
O       -8.93036016      -2.76220855      14.93062985      -0.09102541      -0.41183680      -0.29921436       0.31030691       0.12293965      -1.12010503
O       -9.60499578      -3.28706294      12.77651510      -0.45115960       0.31343078       0.28210001       0.38233846       0.42451179       1.39830410
H       -6.63476698      -3.70415812      12.66974975       0.08001309       0.02994129       0.24580204       0.28178227       0.10556827      -0.21862471
H      -10.82507369      -1.02414639      14.74618568      -0.00533805       0.13635166       0.14559655       0.39183408       0.41069034       1.03719544
H      -11.72637012      -2.52030559      14.42838783       0.16396842       0.07389326      -0.05444002      -0.66008228      -0.17887351       0.33268616
H      -11.24615345      -1.42200403      13.17463602      -0.13849021       0.15772934       0.22222979      -0.53581184      -0.22906865      -0.49634537
C       -2.11793149       1.87176549      21.99746815       0.49719142      -0.59695445       0.79994647      -3.13082147      -0.12864147       0.26418042
C       -1.54959874       2.26393567      20.70707621       0.31428224      -0.04206167       0.04906677       0.01387849       0.06321025      -0.25126874
O       -2.28435408      21.87510095      19.82512257      -0.57198747       0.08813495      -0.21915992      -1.26214480       0.46317273      -1.18267453
O       -0.29797808       2.14362852      20.54818545       0.24554819      -0.13331668      -0.67438007       1.85817373      -0.54988933       0.33077729
H       17.01718473      10.31123721      12.79196054       0.16258267       0.23417633      -0.07737942      -0.38642576      -0.12752903       0.60373402
H       -1.68172944      21.57861306      22.77836704      -0.25165776      -0.15427291       0.20121869       0.40537411       0.99354285       1.15246975
H       -1.91904149       0.86252159      22.24208844      -0.07954755      -0.02671591       0.06098867       0.29732272      -1.36828840       0.07379270
H       -3.27399050       1.99038764      21.99777182      -0.19335092      -0.13404773      -0.32957273       1.97909331      -0.05503815       0.07080802
C        8.62548462      12.28011582       6.02231576       0.65123866      -0.17014129       0.59979572      -0.70763218       3.16868734       0.55318671
C        9.52812150      13.40779849       5.48794490       0.68084474      -0.00969296       0.59043941      -0.25284463       1.44388783       2.30765581
O        9.82244564      14.39612379      25.39823298      -0.41027844      -0.73208791       0.44187163      -0.48071575      -2.12086630      -1.66908205
O        9.89269204      13.33109567       4.24197830       0.69393249       0.20696822       0.20649283       0.70038414       1.04784024       0.07787225
H       12.13053133       1.86807894      -6.17419949       0.18283546      -0.15394332       0.08896592      -1.10377061       0.50961393       0.45290506
H        7.72018514      12.83345168       6.47539419      -0.01836886      -0.23531319      -0.13116655       1.58812094      -1.18066621      -0.28834051
H        9.20999319      11.76289573      25.91741344      -0.08654114      -0.03979686       0.07905567      -0.25948489      -0.59933341       0.25541773
H        8.25537050      11.73792804       5.19418344       0.08046115       0.19700359       0.02144735      -0.13340877      -1.26898444      -0.52807832
C        1.71113754      33.51860926       7.02986535       0.68708494       0.33636668      -0.64120799       2.47199106      -0.18508662       0.20488046
C        2.17206024      32.13073462       6.66866514      -0.06973497       0.67009203       1.00042985      -0.31948909      -1.47089338      -0.72340447
O        1.64481804      31.46428337       5.70071792      -0.90964503      -0.17612872       0.07416812       0.59968323       1.53470349       1.60027933
O        3.04378254      31.63034024       7.49792773      -0.10848419       0.70516730       0.02068327      -0.49688357      -0.61740685      -0.41302985
H        2.89478532      30.33158877       7.56384525      -0.08430255       0.23108826      -0.01859280       0.48048964      -0.09919837       0.25141126
H        1.42469156      33.98052060       6.13619243       0.08067523      -0.20256979      -0.11799798      -1.26937902       0.53108042      -1.15095091
H        2.56405996      34.18339572       7.39845605       0.00269957      -0.12030862       0.03676063      -1.27890992      -1.33266902       0.03958406
H        0.93657843      33.33986135       7.74611325      -0.03409198       0.16095795      -0.15697926      -0.54111284       0.69633657       0.41023687
C       14.08055139       6.57618123       3.97220320       0.04347092       0.25468351       0.51733218      -1.12787414       0.90365320       2.76048231
N       13.04728248       5.96818292       4.95119867      -0.05843627      -0.36295535      -0.58963419       0.14477377       1.18615627      -2.40264273
C       13.08003060       5.85963268       6.28563436       0.46955063       0.48717189      -0.27173180       0.51328635      -0.63185769       2.68499231
C       11.92030793       5.20934948       6.72771499      -0.46530316       0.68735704      -0.36423029       2.50191188       1.40399957      -1.09239674
N       11.16498840       5.09604747       5.62758857      -0.07015874       0.14034270      -0.38943910      -3.34844470      -1.61271811       0.81927866
C       11.75658854       5.60112417       4.61324868      -0.44760791      -1.35404552       0.34262456       1.58079243       0.13712186      -1.66807508
H       14.92333668       5.95593273       3.75745871       0.13248683       0.18094113      -0.03954550       0.07113734      -0.86951816      -0.14046843
H       14.48505948       7.47398104       4.48307022      -0.20566712       0.05510487       0.10884607      -0.35739475      -0.65574998      -0.08418679
H       13.55918488       6.94072141       3.11708533       0.12191359       0.44852845      -0.11453775      -0.42666820      -0.19843048      -0.82885802
H       13.81055420       6.32511752       6.92529863      -0.19454167      -0.14034810      -0.13639549       0.35065120       0.03311983      -0.32283086
H       11.75626283       4.77982383       7.68691741      -0.00052538      -0.34454556      -0.17095644      -0.34154907      -0.22567128       0.32801124
H       11.28848195       5.71893078       3.65418413       0.10429586       0.24545840      -0.09621616       0.27295792       0.17844322      -0.33299103
C      -10.42987202      15.39431143      48.06073231       0.67953136      -0.45907777       0.59543012      -1.38046253       2.26923752       1.98062062
N      -10.21160140      16.84945157      47.87568170       1.57635718       0.18470869      -0.23562479       0.93568891       0.56462812       1.44833493
C       -9.78014706      17.74022678      48.90225855      -0.76645297      -0.09214065      -0.43157297      -0.54636556       0.45829421      -1.64922118
C       -9.27849121      18.85369507      48.23868036      -0.05071833      -0.57481449      -0.04230056      -0.38667145      -1.89867830      -0.17593479
N       -9.45478912      18.72494332      46.87094635       0.04097936       0.23547289       0.32426988      -0.60393512      -2.40034199       0.91396832
C      -10.02523274      17.48219993      46.72348193      -0.21529812       0.52981236      -0.41203701       0.31959194       2.09247470      -1.28442585
H       -9.77693051      -4.03894436      48.85922617       0.26749505       0.08320177       0.10255127       0.57341737      -0.48906726       0.17967597
H      -10.30126086      -4.23598906      47.15326794       0.13755935       0.02740503       0.19360695       0.41673440      -1.05741382      -1.73422050
H      -11.45796656      15.28775881      48.44509567       0.15813386      -0.00554555       0.11107507       0.32149899      -0.23505357      -0.34210774
H      -10.06466297      17.63588494      49.93474330       0.33415237      -0.07948445      -0.09768426       0.16200577      -0.32501942      -0.35670185
H       -8.51107023      19.44845759      48.64448489       0.16279414      -0.31525822      -0.13530967       0.54190212       1.08976722       0.35616398
H      -10.39766892      17.17575444      45.75257739      -0.08364905      -0.03018866       0.21408253       0.12418861      -0.29851219       0.24565205
C       32.75189472      20.83261946       8.80390456       0.46276203      -0.15462169       0.58666966       2.26404071       0.07768413      -0.02756698
N       33.48935091      21.43385518       7.65726616       0.28981062       0.39636565       0.50704337       0.17040160       0.47038609      -0.24265911
C       33.13440019      21.61994270       6.31673581      -0.01677740       0.62349078      -0.24128874      -0.12539390       0.09050354       0.15209261
C       34.21259024      22.26029082       5.74397102       0.42482418      -0.10295610       0.33580907      -0.82167971      -0.12916270      -0.99972665
N       35.18050272      22.57746260       6.64725328      -0.24660993       0.65747675       1.21552620      -1.69154191      -1.59437871       1.56820583
C       34.69427400      22.01391852       7.80239267       0.19211797       0.08187641       0.25351870       1.74069059       0.50297308      -0.56552613
H       33.23374879      19.86257739       9.06131039      -0.03620616       0.17379384       0.22265875      -0.68300813       0.21402413      -0.57216579
H       31.73435352      20.76576028       8.49123615      -0.12943032       0.14370492       0.04802485      -0.78054929      -0.18803577       0.34060496
H       32.99829699      21.42869495       9.70898868       0.05952900      -0.03291969       0.03908829      -0.83649236       0.08804518      -0.70775598
H       32.12891788      21.48592656       5.90061342       0.13036466       0.21055171      -0.18883037       0.52110672      -0.24447784       0.56292635
H       34.30325887      22.46138284       4.67659404       0.02390095      -0.09104851      -0.26624956       0.08641742       0.07006540       0.36263382
H       35.33377120      21.82986415       8.66313473       0.22479586      -0.08151666       0.19055460      -0.37633327       0.16677581      -0.14408995
C       12.68838043      32.56994328       8.33142884       0.00678372      -0.19446636       0.36493599       1.12581265      -0.37581694       2.07400370
N       12.76934251      31.42704251       9.24266208       1.42168990       0.88239977       0.02813827       1.35766101       0.20212233      -1.01737452
C       11.78703976      30.97202979      10.02662086       0.63515456      -0.24418903      -1.25851054      -0.23971534      -1.42614055       1.24299121
C       12.28402901      29.82391073      10.65920731      -0.83609679      -0.12801561       0.34934037      -0.45155308       0.11655152      -0.63526374
N       13.55049346      29.60523889      10.18450564      -0.13505476      -0.85725142      -0.08284966       0.51917523      -0.60990846       0.59489870
C       13.85245836      30.60217852       9.37489298       0.25805737      -0.07999483      -0.44540243      -0.58456659       0.00247538      -0.69925541
H       12.82744904      33.43506275       8.99226452      -0.26370025      -0.08035990      -0.11235502       0.46195149       0.26929024      -0.83705014
H       11.72339670      32.62568617       7.96019994       0.15535107      -0.04123139      -0.04966723      -1.92620468       0.04557582      -0.95571923
H       13.39319676      32.38965231       7.53534155       0.12888333      -0.19855704      -0.13972485       0.38996923       0.47896165      -0.05311126
H       10.84168107      31.45330114      10.00105163       0.10001206       0.26523987       0.08963158      -0.60333949       0.13843203       0.17953674
H       11.81981890      29.07060320      11.31590551       0.17524198       0.26125684      -0.06267145       0.15483376       0.84600377      -0.35715204
H       14.69818746      30.65570587       8.69123294      -0.02706833      -0.06058004       0.05723005      -0.24337175       0.06605966       0.36688006
C       13.22346987      -1.49535803       7.04882217      -0.55453269      -0.34645039       0.29267524       0.34336856      -2.15122366      -0.25816569
N       14.59408167      -1.11862405       6.94965468       0.25920864      -0.05982619      -0.07002733       1.18798995      -1.42470062       1.36848235
C       15.16057248      -0.64360788       5.80276522      -0.57630304      -0.68724751       0.63340568       1.76711571       0.29520297       2.08536386
C       16.50873520      -0.52331221       6.12832457      -0.11237831       1.03309936      -0.95157985      -1.08157492       0.26620466      -1.33045888
N       16.72891735      -1.03242291       7.34509848      -0.74839017      -0.12714076      -0.58178631       0.98632771      -0.93964982       1.16719079
C       15.61154514      -1.50535375       7.87884235       0.19662286       0.22230850      -0.07499986      -1.61393535       2.06236863      -2.89683485
H       13.20151198      -2.61856589       7.12505603       0.12903507       0.09163603       0.08397162      -0.40405670       1.17708480       0.38002324
H       12.76906929      -1.23966730       6.13312627      -0.23382865      -0.14910485       0.14378101      -0.66850722       0.26744750      -1.05134797
H       12.72195742      -0.98883968       7.83044444       0.00968471       0.03780511       0.07689514      -0.52148026       0.10305822       0.98421729
H       14.59202406      -0.43424376       4.94008604      -0.03938499      -0.06143006       0.13022351      -0.35873196       0.14431261      -0.67183429
H       17.29901629      -0.12448395       5.53073171      -0.18184980      -0.01780933      -0.06047141       0.24130632       0.02728949      -0.15540892
H       15.47800334      -2.22639639       8.66519148      -0.26153321       0.19843015      -0.15183531      -0.16589874       0.17931312       0.07031037
C       15.75366415      -4.49509327      11.55912324      -0.02439522       0.25781111       0.39716068       1.64859414      -1.83393264      -1.48424721