640
Lattice="19.152215 0.0 0.0 0.0 19.152215 0.0 0.0 0.0 19.152215" Properties=species:S:1:pos:R:3:momenta:R:3:forces:R:3 energy=-80021.6328125 stress="0.0015483906026929617 0.0009348929743282497 -0.0020732618868350983 0.0009348929743282497 -0.00354314805008471 0.0016315453685820103 -0.0020732618868350983 0.0016315453685820103 0.005824345164000988" pbc="T T T"
C        3.56902096      13.97934751       5.12922176      -0.41616625      -0.93121962       0.18680386      -0.32963473      -0.20654586      -1.54117966
C        2.57046799      15.02771879       4.63714530      -0.37559126      -0.43297561       0.99892351       0.26944295       1.46759915       1.49090052
O        2.58136090      16.19300644       5.12607319      -0.02754853      -0.21594325      -0.56242204       0.06008491      -1.62818778      -0.92120481
O        1.66960531      14.68921886       3.74209261      -0.87993856      -0.47512926       0.08782360       0.17712998       0.90329528       0.41548240
H        1.74495699      13.65819650       3.61876771       0.17453203      -0.22949531      -0.20738040       0.15772727      -0.36539194      -0.75020802
H        4.21547400      14.43855071       5.84156336      -0.21272035       0.15699023       0.32978488       0.46195322       0.20575874       0.54416901
H        4.16728635      13.57693822       4.27625047      -0.20158005       0.17114947      -0.11390555      -0.23389108       0.47658417       0.40671402
H        3.10874195      13.06824641       5.51826270      -0.13142923       0.13742494      -0.12105430      -0.26659685       0.27893588       0.17872751
C       26.22388226      -5.04652259      14.60552690      -0.16742210      -1.00869708      -0.51119242      -0.93493414       0.12486818      -0.31253201
C       25.32760048      -4.28756321      15.56635439      -0.55344354       0.22445143      -0.78666362       0.39378107       0.36968058      -1.01626778
O       25.43977031      -3.05855973      15.76400916       1.09791643      -0.62730560       0.78755873       0.23364691      -0.50948799      -0.00667265
O       24.37610754      -5.01159839      16.09349265       0.98033752      -0.41520653      -0.93236977      -0.59400725       0.67825371       0.70162052
H       27.66111009       8.90672659      10.12574357      -0.23005537      -0.25341851      -0.03329248       1.20616019      -0.53667831       0.60954142
H       27.24911166      -4.75778963      14.63703755       0.09285606       0.01407942      -0.02886895       0.65504855       0.74218976       0.17194694
H       25.86991662      -4.97655823      13.55864787       0.05363041      -0.05851443       0.17547892       0.07027435       0.21091107       0.52592200
H       26.20071977      -6.08832901      14.84410224       0.23134261      -0.28293785       0.23850245      -0.22527386      -0.80021220       0.26326823
C       11.09588737       0.90768921      -1.40017735      -0.44855857       0.12386772       1.35086313      -0.32592112       0.13639447      -0.22683468
C       11.69568836       1.97124708      -2.31777596       0.68981899       0.04884511       0.69884748       0.08122563      -0.32408708      -1.55501640
O       11.20493538       1.80001286      -3.56521419       0.67155606      -0.13477339       0.31720948       0.32026219       0.64418578       0.43052965
O       12.56613699       2.80985144      -2.01987975       0.94697935       0.51412910      -0.74590152      -0.97843349      -0.74949318       0.16734187
H       11.71577282      10.52394464       0.84331362      -0.00630218       0.02183505       0.11389789       0.11238366      -0.11566946      -0.03207350
H        9.98703625       0.90287655      -1.44041321       0.00379148      -0.02811822      -0.20267111       0.51378602       0.52035707       0.13706160
H       11.43274746       1.02362227      -0.36551165       0.26096748      -0.28428607       0.27973081      -0.08899768      -0.20336007      -0.27528411
H       11.30189391      -0.09860343      -1.80661356      -0.28145544       0.29309189       0.08818871       0.49198133       0.44676140       0.36310351
C       28.96496200      37.69398869      13.33333949      -0.20647854      -0.44921809      -0.14476635      -0.91652513       0.72519928      -1.25927019
C       28.14737336      36.61953506      13.93279399      -0.25604498       0.28435149      -0.14336434      -0.80528462       1.03367150       0.28098252
O       26.88376226      36.95000052      14.16211504       0.15722014      -1.68664809       0.36463220      -1.28154933       1.00964212      -0.22203881
O       28.54404437      35.54968289      14.28307428      -0.72837472       0.75192424      -1.16887872       1.80290020      -2.71125770       0.54293412
H       19.94672210      24.80968889      13.56253956      -0.20725416      -0.20437434      -0.07391500       0.96852654       1.18280995       2.15013766
H       28.33835355      38.26695500      12.63554061      -0.27418778       0.04506100      -0.10103446       0.04874340       0.07928873       0.29317892
H       29.82188437      18.25592460      12.76334406      -0.06238414       0.17473406      -0.16741157       0.49610832      -0.98729765      -0.27573186
H       29.35113069      19.21069144      14.06347132      -0.05455267      -0.27650259      -0.03242370       0.02862481       0.71190858       0.95504737
C       25.69510860       2.37007990      21.58813217       0.49493417      -0.07832184       0.51865619       0.10846277       1.26658821       1.26937103
C       26.99755091       3.10886464      21.63883670      -0.05760884      -1.52146284       0.04878187       0.62069768      -0.57190621      -0.63175726
O       27.52646893       3.48264102      22.68721738      -0.20262836       0.28514430       0.73197958      -0.50237989       0.07352659      -0.35411799
O       27.59798238       3.23209298      20.43347286       0.90234919       0.21106155      -0.37462291       0.01475179       0.29713482       0.51728249
H        4.33457316       2.83911597      26.00318841      -0.15448632      -0.03677011      -0.10915306      -0.23790985       0.03677726       0.74559164
H       25.78001481       1.69209808      22.42823216      -0.14251527       0.00429346       0.12331551      -0.43596548      -0.36735547       0.09829719
H       25.42880317       1.86515933      20.68491947      -0.06795633       0.02549399      -0.00614816       0.28759289      -0.23748237      -0.51501083
H       24.94039496       3.13479919      21.82669311       0.04828115      -0.04346599       0.24741164      -0.09909646      -0.32054594      -0.05241895
C       -7.20950746      -6.94581712      15.52636408      -0.55577673       0.52857468      -0.02104568      -0.03543761       2.14773607      -1.49272513
C       -6.74163573      -7.18845124      14.08926730       1.11859348       0.17049420      -0.57314866      -0.10770833      -0.78916740       1.15604877
O       -7.03558155      -6.23141300      13.23203590       0.52202077       0.27761155      -0.74599091      -0.22647947       0.24263394       0.07459581
O       -6.16011374      -8.23120835      13.79348913       0.88101598      -0.20166144       0.22430192       0.02978373       0.22895539      -0.07449901
H       -6.87890337      -6.57435349      12.27543600       0.26324899      -0.03551611      -0.08072167      -0.03874077      -0.29000941      -0.14190531
H       -8.14382048      -7.42043486      15.69424814      -0.28481997      -0.15284274      -0.04082775      -0.71750629      -0.91672993       0.05584920
H       -7.45905312      -5.86210467      15.66343605       0.20894828      -0.17388376      -0.05698606       0.57551628      -0.77022064      -0.00060277
H       -6.45694596      -7.28113715      16.20283011      -0.10179467       0.00475053       0.11512440       0.38430065      -0.27242389       0.53015494
C       22.32109392      11.64217344      -2.02244964       0.05917293       0.06316359      -0.66266878      -0.72731113      -1.03139043      -1.82576609
C       22.99340682      10.32798046      -1.75696695       0.65890008       0.00994102       0.14021188       0.35647064       2.03358865       2.02118111
O       22.74270859       9.30792569      -2.48858675       0.60356151       0.09130305       0.52934304      -0.83961403      -0.76090956      -3.54689217
O       23.70611472      10.25506482      -0.76766520       0.43404924       0.21241543      -1.70849650       0.90009797      -0.53643596       0.71862996
H       15.14230916      -0.83768166      -0.04094782      -0.07173106      -0.15243101      -0.05142125       0.13980767      -0.83550662      -0.38510549
H       22.60305963      11.98773212      -3.04301301       0.04923528      -0.07552488       0.08521664      -0.21818814       0.02638765       0.72577405
H       22.61547444      12.33477023      -1.26437403       0.12613466      -0.30808730       0.21754513      -0.04981589       0.47761115       0.28930089
H       21.23606676      11.39644856      -2.02924124       0.17590781      -0.10185193       0.11261720       0.40846786       0.73399198       0.01545387
C        3.63350779       6.53563969      14.14633301       0.27901926      -0.57728043       0.05523894       0.80412710      -2.40815401      -1.70668268
C        2.65673749       5.68874094      14.94555727       0.64735987      -0.38285263       0.03111847      -0.44662452       1.78841138      -0.73595774
O        1.45097656       6.09193769      14.96874084      -0.44287004       0.58879224      -0.55824981       0.62288368      -0.77867997       0.39850727
O       22.27790197       4.66767381      15.52006500       0.60632084       0.25037847       0.03291345       0.02803367      -1.08273673       0.78428054
H       -5.77093034      -2.19025209       4.62557912      -0.20303562      -0.32815328      -0.33493689      -0.64133978       0.29158902       0.64018506
H        3.96833098       7.37700862      14.67375438       0.00912198      -0.02288624      -0.26459749       0.10192063       1.52355552       0.76849818
H        3.24854837       6.78720107      13.13631729      -0.14501950       0.00405919      -0.02224596      -0.09744158       0.23601587       0.77091581
H        4.55273253       5.92855361      13.93793576       0.19555586       0.16089841      -0.12905908      -0.63607991       0.39429322       0.29783854
C      -15.79503253       3.13228667      -6.84259256      -0.39960973       0.50210623      -0.39333688       0.53348857       0.53982937      -0.65065581
C      -15.70572364       1.76711891      -7.37729272       0.54342486       0.37181923      -0.68874831      -0.87452883      -1.87820745      -2.19944263
O      -15.95796709       1.59496454      -8.62163538       0.72639378       0.93341787      -0.33113502       0.48145020       0.24384737       1.88623881
O      -15.42283697      19.91923936      -6.59488682      -0.14853972      -0.69327485       0.49927132       0.05437785       0.80534124      -0.57747257
H      -15.89296070      20.05748214      -5.43205642      -0.08748646      -0.10584116      -0.08754858       0.14113128      -0.11667100      -0.33503687
H      -15.72278397       3.09552037      -5.79847337      -0.09678232       0.14891168      -0.16008516       0.32961452       0.29513636       1.68417966
H      -16.72626562       3.62282441      -7.09130909      -0.09217821       0.15130634      -0.06863148      -0.09740609       0.07081547      -0.31924143
H      -14.94111665       3.67563240      -7.27605301      -0.13586331      -0.08042116      -0.12784480      -0.40969777       0.23984802       0.22683308
C        0.02487326       8.52708004      -2.78053899       0.42812697      -0.00691267      -0.11070440      -0.60726953       1.88501263      -0.62227094
C       18.72586437       8.51353915      -1.39366630      -0.02878710       0.42117510       0.04389776      -2.21190071      -0.59984452       0.60837841
O       17.67292876       9.33143524      -1.19425973       0.22626021       0.65166272       0.51281972       0.52011728       0.27231658      -0.10539067
O       -0.09763566       7.71791615      -0.51582877       0.05488782       1.00245114       0.65424941       0.86148101      -0.02219570      -0.04409647
H       12.19749974       5.91229776      -9.72047137       0.00424338      -0.08090705      -0.04292472      -0.30286762      -0.83636737       0.40031767
H        0.59369819       7.67951237      -2.98463442      -0.06902336       0.22154889       0.08042972       0.93115902      -1.26718998      -0.57938755
H        0.62654080       9.43336312      -2.87718144       0.09251727      -0.08265479      -0.28151894       0.28438014       0.04678752      -0.32446414
H       -0.82617991       8.67632350      -3.48938421       0.12779551      -0.29557807       0.24906222       0.60901552      -0.27448666       0.63499755
C       28.24641307      31.00206246      -6.63751508       0.51163291      -0.74963232      -0.17635515      -0.10021804      -1.85664248      -0.34946504
C       27.48553590      30.09806803      -5.67938200       0.24699752       0.27602335       0.52513823      -0.17606223       1.21099663      -1.75792980
O       28.11856748      29.74369099      -4.59498888      -0.22157541       0.26101793      -0.17831250      -0.27282441      -0.27197266       0.91009313
O       26.34794113      29.71967715      -5.94657767       0.27826891      -0.07333048       0.37148717      -0.20096636      -0.18969184       0.10992263
H       17.21270175       8.94810066      -0.34650102      -0.11789403       0.05083330      -0.07253271      -0.04227918       0.12934569       0.12109178
H       29.27825928      30.59581304      -6.64436741      -0.16370249      -0.08253211       0.00544665      -0.45134956       0.56217688      -0.47477791
H       28.26306637      32.01198692      -6.28717973       0.26434169       0.01971810       0.00263024      -0.06586487       0.59809822       0.25983271
H       27.73830421      30.93791559      -7.63304098       0.03689182      -0.07397844      -0.10265664       0.78870571       0.11651451       1.00896776
C       -5.38308874      -5.79764997       6.02717678       0.05708998      -1.45819414       0.39798207       1.14881265      -0.75735533      -0.55748516
C       -3.94960610      -6.31542382       6.40224791      -0.73228122      -0.88436321       0.09210027      -0.93931556       0.54028696      -0.05427027
O       -3.09788675      -6.62875348     -13.57645565      -0.04336890      -0.22484453      -0.46180853      -0.34250414      -0.05113107      -0.05215144
O       -3.70233243      -6.40281301     -11.44756612       0.57120884       0.52485798       0.04840102       0.08913779      -0.45975026      -0.34627461
H       15.69888092       1.96787779      13.50331861      -0.07055702      -0.01172109       0.09021869      -1.01495028       1.22420454       1.04718351
H       -5.31102623      -4.77978593       5.65664933       0.06604663       0.15961654      -0.34753098       0.20654961       0.37801307       0.38549763
H       -6.03924146      -5.85096163       6.89717724       0.05091043      -0.06680884       0.26520593      -0.15313534      -0.05408304      -0.30195788
H       -5.71742835      -6.34430106       5.12423083      -0.11341983       0.21793315       0.09280264      -0.08936594      -0.15624095       0.73840487
C       -4.40973944      -7.01737180      10.95490059      -1.27247318      -0.10039159       0.93968668       0.49741060      -0.66752183       0.70426399
C       -5.70006420      -6.71441437      10.32158166      -0.94331078       0.31484556      -0.05717396       0.41521892       1.84977233      -2.24327517
O       -6.79744850      -7.03212810      10.80358394      -0.88885066       1.05453245       0.17322944      -1.48879850      -0.69498873       1.77185154
O       -5.68448323      -6.05727520       9.21832816       1.02875103       0.66414726       0.43152663       0.46211931      -0.19984227      -0.35518801
H       -4.56372346      -6.38568561       8.27493038       0.03356347       0.05793653       0.04669991       0.01927012       0.63614988       0.38527304
H       -3.93140158      -7.75512684      10.26495831      -0.02170614      -0.27217102      -0.01275854       0.11003426       0.46129847       0.67644930
H       -4.69267229      -7.47741746      11.92572651       0.15430396       0.03192783      -0.19051587       0.84235054       0.11266777      -0.44582427
H       -3.74254653      -6.12469765      11.06855389       0.27395061       0.09410008      -0.08351813      -0.66222447      -0.67543936      -0.21495649
C       -2.99392443       1.16536457      18.03897827      -0.78648929      -0.83638012       0.18286783       0.96711588      -0.53240246      -0.66451555
C       -3.12195759       0.90227881      19.52408113       0.42805186      -0.52380405      -0.09291862       0.09056534       1.04885960       1.03229845
O       -3.26967787      18.89313112      20.03126090       0.73259483       0.06820531      -0.72221571       0.17693251       0.06132776      -0.81944120
O       -3.09265964       1.91205565      20.30635461      -1.35192669      -0.26224195      -0.90713908       0.06804372       0.12895554      -0.18167388
H       24.10704011      14.82557016      10.64983529      -0.06146282       0.04114201      -0.09021181       0.74792027      -1.38902700       0.11143288
H       -3.06765164      19.35727835      17.43964210      -0.15461098      -0.01101691       0.06142452      -0.05827871       1.33153963       0.70760357
H       -1.98071382       1.64496109      17.85659275      -0.01353450       0.26583283      -0.18880100      -1.07610846      -0.61299109       0.17937842
H       -3.72250659       1.93367418      17.72052123       0.10899531      -0.09893678      -0.33679479       0.07051666      -0.54116142       0.16779926
C        7.02524382      12.25681377      -0.86066414       0.75401984       0.28975740       0.79902051       0.81392634      -0.51091838       0.85539293
C        6.65418379      12.34630577       0.61459647      -0.24860719       0.11000407       0.47064135      -0.89754009      -0.15872723      -0.45134041
O        5.56374335      12.76856949      20.16080583       0.35122106       0.12033990       0.73420683       0.35558641      -0.09735554      -0.23015893
O        7.53962300      11.87801983       1.48863066       0.67894739       0.37436536      -0.23993361       0.18360770       0.59911454      -0.44008458
H       11.65304814       2.46486388      -4.37135424      -0.16945179       0.21612083       0.08274520       0.41681454      -0.22708371       0.83079326
H        6.39778176      11.52264237      -1.34255759      -0.00724205       0.15840934      -0.12703050      -0.40298155      -0.24465792       0.09383827
H        8.05987161      11.87764478      18.17739049       0.19868560       0.09502297      -0.17348504      -0.37188923       0.51806164       0.02668764
H        6.85780319      13.19187593      -1.36822515       0.34010684      -0.30254491       0.15323443       0.09179513       0.41067988      -0.07332134
C        5.92650376      37.56081707      11.12435826       0.58589113       0.00206228       0.22721657       1.59162402      -0.22146338      -1.26052999
C        5.93353585      36.08883866      11.11441398      -0.43123475       0.11172911       0.09788337      -0.65001523       2.05458236       0.43820328
O        4.88490047      35.43778001      11.16083264       0.27359955       0.23776514       0.09321200       0.24447225      -1.32781792      -0.39391696
O        7.17266764      35.66743960      11.16330516      -0.00204056       1.17898750      -0.10422649       0.22310559      -0.12340254      -0.20479757
H        7.19798818      34.69412524      11.21085169      -0.09302492      -0.16563833      -0.20914305      -0.04739574      -1.53515625       0.04298292
H        5.02905032      38.02407387      10.90651859       0.12672386      -0.12732011       0.25402622      -2.15585160       0.53134876       0.03904562
H        6.60971780      37.94153121      10.36286712       0.11341880       0.04008529       0.02184401       0.36206168      -0.18542896       0.06803621
H        6.30349006      37.88466021      12.06700833       0.01612835       0.01060883       0.00691034       0.24995556       0.36658227       0.91997093
C       13.15806063       3.33355913       4.71800291       0.25547947       0.92994800      -0.69837371       0.29067117      -1.38336265       1.94467354
N       12.51762990       3.40618583       3.45409459      -1.55110276       1.06041372       0.30707843      -0.62198722      -0.91285020      -2.87314606
C       12.93518699       2.76830308       2.26703411       0.02351240       0.23482707      -0.75875145      -0.47764623       1.49679375      -0.12339139
C       12.06782314       3.19011333       1.25502662       0.22147360       0.01890081      -0.13776910       1.27665019      -0.86590523      -0.13296771
N       10.98751839       3.78239673       1.83126213       0.87662106      -0.08453274       0.35862343       0.10266823       0.51247072       1.13625288
C       11.32718217       3.94854812       3.11801346      -0.67787584       0.40913579       0.02371556      -0.59046364       1.46720934       1.30676079
H       12.40667977       3.21545351       5.54184986      -0.22403737      -0.06142034      -0.12423134       0.51884854       0.43991071      -0.80196154
H       13.89379747       4.09793900       4.96205214      -0.06992115       0.00453976       0.03335702      -0.38243443       0.62813091      -0.31168509
H       13.74895915       2.40605484       4.75850479       0.04907333       0.04801021       0.17862194      -0.36257195       0.07139945      -0.21949264
H       13.69589679       2.04131295       2.32774222       0.27904251      -0.16479257       0.34917290       0.72473502      -0.58987701      -0.22977790
H       12.26641429       3.31393933       0.16367288      -0.03094653      -0.40195117      -0.06670661      -0.16958144      -0.44722474       1.03650117
H       10.89210665       4.67180435       3.83353314      -0.12625573      -0.04291693      -0.02694179      -0.14171597      -0.82575041      -0.68299484
C       -8.87738941      14.95700323      49.51428197       0.94121691      -0.74571984      -0.04320498       0.62902832       0.92224902       0.66603714
N       -8.35356026      15.96909901      48.58235685       1.01633559      -0.65527083      -0.03904537       0.29378071      -1.46694911       0.18618760
C       -7.22096077      15.78224604      47.81446088      -0.07966218       0.53195632       0.24752245      -0.48307687       1.17232370       0.08561432
C       -7.29063556      16.72419695      46.82047170      -0.00732217       0.03770506      -0.00740783       0.35784674      -0.73388791      -1.31208670
N       -8.50781261      17.32653619      46.89470591      -0.92322181      -0.65292466      -0.02865760      -0.78108770       1.50234079       0.54607630
C       -9.11589106      16.90803067      48.00364261      -0.49266435       0.19735922       0.41588290       1.16140735      -0.26449567      -0.58468831
H       -8.41960009      -5.15781805      49.42078983      -0.05474201      -0.02862082      -0.12225700       0.78845704      -0.29802352      -0.46719819
H       -9.88917224      -4.33708041      49.27392500      -0.04200215       0.00151742       0.15972533      -1.36923218      -0.06363430      -0.10738049
H       -8.77039910      15.27800339      50.55812891       0.05297185       0.08355107      -0.35047325      -0.10343229       0.05239258      -0.22722068
H       -6.62784407      14.92331779      47.95328193      -0.07142779      -0.08139627       0.06433556       0.76499581      -0.76841652       0.09851202
H       -6.63905606      16.89831004      45.94144964       0.23060203       0.10966740       0.27275390      -0.48970422      -0.16244218       0.97103965
H      -10.01874470      17.24314059      48.42620311       0.21245831      -0.16422682       0.12200810      -0.84989142       0.51205528       0.13268669
C       21.69585193      17.87805881       7.94061699       0.27260925      -0.03817503      -0.53838964       0.92597020      -0.69453871       0.30186132
N       22.40909581      18.98154007       7.30193115       0.24936483      -0.92900350       0.73814594      -0.89474362      -0.50387824      -0.82167721
C       22.65978971      18.97546216       5.93890592      -1.14339179      -0.36926118      -0.45189691      -0.10854720       0.21862189      -0.95948988
C       23.12770359      20.22339090       5.63368816       1.00311265       0.37393426      -0.29298426      -0.43717274       0.53925216       1.71386874
N       23.05173545      21.02010550       6.80757403      -0.71681159       0.43870391       0.10999106      -0.27932146      -2.35714316      -0.77210712
C       22.58216733      20.20461504       7.80496277       0.02593924      -0.22666593      -0.67080824       0.48384640       1.26075518      -0.12182234
H       20.63750041      17.92798411       7.83519568      -0.00311407       0.20389105      -0.15614679      -0.91170621       0.60547853      -0.16636033
H       21.94196667      17.87528304       9.00201751      -0.05933742      -0.36063114      -0.15616171       0.09645581      -0.18798812      -0.06856692
H       21.95934292      16.93143533       7.43701719      -0.15215623      -0.33426803      -0.02642441       0.33694053       0.55858159       0.32596773
H       22.24071678      18.20171244       5.24395317      -0.19694666      -0.16278964       0.29224769       0.68697512       0.61019087       1.14434528
H       23.47796140      20.65042501       4.72969357      -0.01122548      -0.43194111       0.24795210       0.17912902       0.14321993      -0.61453605
H       22.32323157      20.47901179       8.86182766      -0.02563330       0.11481336       0.20539416       0.36291707      -0.12567505      -0.87288243
C       15.20800007      28.04446900      12.18258363      -0.81070718       0.10550735      -0.25934586      -0.20762745       1.50532985       0.14656100
N       14.05617501      27.35878728      11.64598686       0.76439908      -0.32046504      -0.65682577       1.29111481       0.27730402       0.33458248
C       12.94443195      27.25253685      12.37708445      -1.62774531       0.50277875       0.63572399      -2.21254826      -1.90495896      -1.25564384
C       12.06209819      26.47897803      11.60184364       0.84391624       0.13121913       0.35613617       0.82295406       0.68701828      -0.29815143
N       12.69360746      26.20547563      10.37437583       0.16916753      -0.15676277      -0.50767053      -0.31370002      -0.04404362       0.95509416
C       13.90847967      26.74561250      10.45128656       0.34834116       0.21143477       0.18720379      -0.12007952       0.00355083       0.54695892
H       15.50833506      28.77434993      11.43138873      -0.03406463       0.29594538       0.03398730       0.46871641      -0.13320091       0.22315705
H       16.01723915      27.42735922      12.50197300      -0.03488950       0.18782303      -0.09766195       0.58273506      -0.81066847      -0.23856220
H       14.91293725      28.59995650      13.09545583      -0.21802075       0.16497218      -0.00450513      -0.11144920      -0.15243006      -0.71266508
H       12.90301899      27.70697901      13.32689340       0.33365502      -0.03526129       0.08598943      -0.34373623       0.36739603       0.77746242
H       11.04399197      26.14455121      11.81751626       0.12791469      -0.15113262       0.17093300       0.52775401       0.16238555      -0.18006505
H       14.73989834      26.71682741       9.76331546       0.16002789       0.09099650      -0.07324319      -0.29443860      -0.15776984      -0.20922975
C       13.13384976       0.30930273       9.93515265      -0.13557559       1.32487849       0.29273299       1.71095133      -2.90335131      -1.36518335
N       14.14363507       1.11729028       9.39406047      -0.08644294       1.00060451      -0.01804025       1.62272358       1.09563541       0.08420984
C       13.84540943       2.31933777       8.84617918      -0.13105212       0.44370503      -0.07971593       0.85640645      -0.71281129      -0.20279726
C       15.00449626       2.81072724       8.42941330      -0.62207677      -0.26655568       0.34678326       3.52380276       0.83138216      -0.50064373
N       16.11613065       1.96009856       8.74864649       1.21034994      -0.32921062       0.24624208      -2.25369310       1.07028556      -0.08373523
C       15.50714320       0.99235632       9.37737991       0.86653793       0.06243794       0.79490805      -1.02011669      -1.69337595       0.30513853
H       12.36575717       0.24997756       9.19564775      -0.31682220       0.21000620      -0.01675885      -0.81145144      -0.39491490      -0.09536630
H       12.83093001       0.66625904      10.83438185      -0.11867231      -0.10670626      -0.08956002      -1.24429739       1.27057838       2.66447878
H       13.59868012      -0.67410095      10.13396657       0.03199326       0.13186779      -0.14362932      -0.66525811       0.11139518      -0.21937436
H       12.88474702       2.68728423       8.84208673      -0.04952966       0.06066540      -0.22097816      -1.85762453       0.86583829      -0.11558240
H       15.28986004       3.76714228       8.09590581       0.11964056       0.03282200       0.03564187      -0.18031034       0.93699139      -0.54202855
H       15.94717869       0.11638538       9.79162012      -0.04622535       0.11070496       0.10097246       0.40272602      -0.49209455       0.19334906
C       22.33500119      -7.53303405       7.84500357       0.33462665      -1.20835382      -0.09927701      -0.14005452       1.52547908       0.94338727