640
Lattice="19.152215 0.0 0.0 0.0 19.152215 0.0 0.0 0.0 19.152215" Properties=species:S:1:pos:R:3:momenta:R:3:forces:R:3 energy=-80020.5703125 stress="-0.0007044993690215051 0.0006553392740897834 -0.0010097258491441607 0.0006553392740897834 -0.0006928123184479773 -0.0022755798418074846 -0.0010097258491441607 -0.0022755798418074846 0.0023399428464472294" pbc="T T T"
C        4.36614971      14.67585161       4.52884849       0.90963741       0.15916904      -0.30069777       1.05504727      -1.73623312       1.21969247
C        3.03129828      15.22742008       4.24801563       0.88962837       0.15607119      -0.13068162      -0.15842700       1.24131608      -0.19260299
O        2.85430104      16.41994191       4.54781913       0.61794558      -0.31733060       0.07503042      -1.10890293      -0.64638019      -0.31740552
O        2.10761467      14.43351718       3.66400153       0.70807193       0.46834830      -0.31709772       0.64759994       1.17760873       0.79624557
H        2.59179082      13.56957779       3.34999645       0.08319117      -0.07157926       0.17333063      -0.04778773      -0.26159704      -0.31517366
H        4.63963562      14.87708864       5.61088758      -0.05082697       0.08939407      -0.11469590      -0.29346302       0.00094859      -1.26628685
H        5.15035831      15.08186122       3.88127907       0.03271001      -0.25641797       0.00482751      -0.32017902       0.24382672       0.02059222
H        4.36009606      13.58006588       4.39142369       0.09128035      -0.07962467      -0.01199176       0.26103595       0.54720837       0.18188569
C       24.84363296      -5.80557698      16.19681507       0.09529777       0.19574278       0.34366380      -0.40920293       0.15355769       1.25842524
C       23.81143188      -4.85013211      16.76201864       0.45314824      -0.18246928      -0.51336424       0.99649620      -1.82066894      -0.60129577
O       23.77393510      -3.73106577      16.26535925      -0.64536487       0.47046212       1.19425451      -1.25287819       1.53835154       0.68275249
O       23.02037866      -5.38808831      17.66122496       0.85865177      -0.30313023      -0.86826234      -0.50165474       0.72222579      -0.28075838
H       29.23495206       7.39436439      10.57557043       0.01411552      -0.26786236      -0.24290090       0.24479830       0.76052284       0.69647110
H       25.48096241      -5.28920296      15.49245463      -0.00148253      -0.18623998      -0.00433549      -0.24147207      -0.19140860      -0.59148413
H       24.28915771      -6.68412117      15.86996027      -0.02461529      -0.16694398       0.09228576       0.38303468      -0.11450574      -0.39956242
H       25.51057646      -6.09711931      17.00190467       0.13440282       0.03798710      -0.43773650      -0.08420111      -0.27583504       0.25330132
C       10.24962846       1.22766090      -2.23842262       0.56237890      -0.08094684      -0.24237957      -0.73690546      -0.27293861       1.54871845
C       10.86697385       2.09427872      -3.22807391       0.01192194       0.06870602      -0.12427803       0.28009325      -1.94341576      -1.11535347
O       11.65339383       1.36948721      -4.01939923       0.11342923       0.93631015       0.48906434       0.17507544      -0.23576057       0.12756360
O       10.66993428       3.27270595      -3.38833506      -0.22575241      -0.65972961      -0.87245381      -0.22594450       1.93050838      -0.01109186
H        9.96674162      12.10613538       1.01652332       0.09457310       0.04818718       0.16149232       0.67299241       0.12557542      -0.19666684
H       10.79229702       1.40219667      -1.31286549      -0.21231979       0.32158669       0.01316678      -0.31101537       0.02346538       0.34132081
H       10.30794393       0.17437725      -2.40124607      -0.12669370      -0.12647818      -0.03652479       0.60035706      -0.61308002      -0.60701549
H        9.18669190       1.37600637      -2.08623139      -0.01624042       0.07082755       0.19914535      -0.12255733       0.73213577       0.25143042
C       26.78703748      36.75038622      13.20728136      -0.12391998       0.38142967      -0.45813607       0.48997486      -1.25451863      -0.71856689
C       26.28587762      35.97551658      14.40168295      -0.03800959      -0.08393469       0.23401783      -1.43081653       0.49010861      -0.67112374
O       24.95953463      36.07619824      14.58057700      -0.73863146      -0.40343150      -0.00879064       0.47601372      -0.27933973       0.69615161
O       26.92988529      35.30204311      15.17279033      -0.08934078       1.03328273      -0.38552767       1.55277598      -0.45973831       0.34259564
H       20.33223180      25.52401313      12.68795810      -0.25129606      -0.03458780       0.19245063       0.29733050      -0.23359004      -0.24899304
H       27.76170005      36.34218463      12.85134837       0.02734448      -0.04407277       0.13404860      -0.76292020       0.15151979       0.26119575
H       26.97939712      18.60221245      13.47997587       0.06373532       0.00084818       0.06323772       0.18343870       1.20615518       0.54749936
H       26.07024820      17.66875965      12.37073342      -0.07946487       0.09764560       0.03938889       0.19119796      -0.31548175       0.51484346
C       25.00723033       3.74540864      20.99184019       0.18185882      -0.46106132       0.03116232       0.74217522      -1.01662993      -0.57881308
C       26.49865650       3.83708862      21.26830855      -0.15946471      -0.26555927      -0.23770234      -0.14075023       0.43102491      -1.62634063
O       26.98941192       3.63470843      22.36652432      -0.18308853       0.48179336       0.39787314       0.34926319      -0.09155261       0.55646288
O       27.23700764       4.11308639      20.16437802      -0.20550203       0.27724535       1.48873311      -0.82793760       0.13559203       0.78500909
H        6.16051462       2.38785295      26.20637835      -0.18794966       0.00535933       0.02674067      -0.83197677      -0.58440536       0.29270467
H       24.60655548       4.56388827      20.41188754      -0.03388950      -0.06810968      -0.18404645       0.09232818       0.35894263      -0.11736535
H       24.41255061       3.59761890      21.88643522      -0.06979914      -0.13427152      -0.04712109       0.15361421      -0.04105371       0.11954618
H       24.90027462       2.83251553      20.35134998      -0.24614912      -0.00416324       0.05751709      -0.07803485       0.59671259       0.43612301
C       -6.14325225      -9.13798652      12.41820712      -0.19669791      -0.40113786       0.26642469      -0.07649171       0.98803616       1.28010035
C       -5.54935573      -9.21194807      11.06040458      -0.84206638      -0.48557282       0.28457315       0.11607820       1.59932256       0.42440701
O       -5.76856846      -8.06707341      10.39680904       0.31665774       1.48613892       0.66644462       0.16633117      -0.66658723       0.28302491
O       -4.86431915     -10.16259812      10.72770675      -0.95920236      -0.65857135      -0.43133622       0.50501180      -0.76557618      -0.87760937
H       -5.05707966      -7.74263129       9.56365323       0.04090035      -0.00705181      -0.06103933      -0.02293864      -0.87968934      -0.12024105
H       -6.99382273      -8.48308612      12.26675020       0.09394626       0.02948692      -0.22901592      -0.16704184       0.17053439       0.63290739
H       -5.41194342      -8.67312587      13.14375592      -0.05134486       0.36794617       0.10857656      -0.75943375      -0.15519531      -0.90957206
H       -6.46211779     -10.04492323      12.92539563      -0.16561877      -0.02231413      -0.18352180       0.02589875      -0.35576349      -0.52893835
C       19.61573528       9.37637908      -3.02493023      -0.30907294      -0.53959964       0.45329007       1.03388774       2.64882016      -1.73055768
C       20.19913532      10.49591505      -2.24158314      -0.05584603       0.73377746       0.39650268       0.72960901       0.94141352       1.12870097
O       20.90273537      11.46873992      -2.87703346      -1.18355352      -1.15968832      -0.64139438      -0.31617528      -0.62448168       1.71006560
O       20.03581671      10.55586306      -1.00958131      -0.39354777      -0.12483751       0.44924450       0.32143325       0.10796562      -1.21213114
H       14.00601435       0.19798171       0.83178768       0.16419694       0.14733851       0.06474883      -0.42100775      -0.38584268      -0.02152027
H       19.12921652       8.70878402      -2.41734547      -0.09004129      -0.41513746       0.13014256      -1.10904193      -1.43213534       1.28664219
H       20.35007833       8.90180843      -3.64695753      -0.23779890       0.07350947      -0.02869683       0.50262988      -0.35486874      -0.30794621
H       18.97394982       9.97602078      -3.66894602       0.33520324       0.02012045       0.31048602      -0.47161344      -0.69043690      -0.25619149
C        4.33519147       7.99180805      13.83280324       0.06634196       0.08712012      -0.08756285       0.77315342      -0.27447408      -0.70022178
C        3.33086286       6.93280613      14.04872244      -0.16065131      -0.12045736       0.20021349      -1.28145790      -1.00965571       0.79587346
O        2.83819578       6.24913739      13.12433289       0.21080991      -0.21662793       0.43781774       0.34326440       0.60115421       0.57395726
O       22.13169983       6.79440764      15.33859461       0.74403401      -0.19158167       0.16244039       0.53954530       0.35898423      -1.26110709
H       -4.09415331      -0.04973386       4.42158095       0.25357087      -0.36226425      -0.06546871      -0.18352306      -0.35984123       0.06087934
H        4.33184593       8.27863748      12.73422997       0.29274121      -0.05972817       0.20511779       0.38063768      -0.20027357       1.58682847
H        5.31735779       7.58662845      14.21365183      -0.12978228       0.21521540      -0.15287482      -0.75621927       0.49608904      -0.73654467
H        4.06131349       8.78552022      14.51770879      -0.32323859      -0.09633736      -0.15747252       0.15034020       0.50599808      -0.24860007
C      -16.81920514       3.30569618      -6.83773954       0.18351551       0.10489808      -0.07894162      -1.16745663       0.97610068      -1.58936608
C      -15.55208835       2.58066503      -6.95229601       0.16238136       0.29681043      -0.29396555       0.60833615      -1.77261853       2.59196115
O      -14.90910919       2.51386298      -7.99353208       0.25790558      -0.00232562      -0.19520834       0.20472646       0.10613018      -1.63777018
O      -15.08742912      21.08586050      -5.87002049       0.08883271      -0.22443280       0.75822598      -1.04128623       0.52646899      -0.17869622
H      -15.85297871      20.89556065      -4.91367786       0.17649159       0.09148526      -0.13469177       0.34311631       0.19779830      -0.28848007
H      -16.68887437       4.31681655      -7.26770955      -0.37491924       0.04699648      -0.41944696      -0.00501248      -0.28313065       0.46771932
H      -17.18112899       3.41527511      -5.83345013      -0.02660912       0.04404547      -0.07915531      -0.20225400      -0.13984688       0.45413864
H      -17.60318964       2.89085665      -7.52309751       0.06767978      -0.30379348      -0.02327190       0.58795559      -0.07696114       0.73774374
C       -1.98507897       7.57281575      -0.33642766      -0.12242281      -0.93314789      -0.20551494       0.55476564      -1.13266814      -2.68861890
C       15.69600811       7.66310183      -0.37523880      -1.01042915       0.32660822      -0.07664044      -1.39837122      -1.29316139      -0.30776909
O       15.17104863       8.78351238      -0.81022052      -0.55719630      -0.23895792      -1.26074475      -0.77798760      -0.05724478       0.31992510
O       -4.14916448       6.66703867      -0.08564438      -0.86903089       0.18786385       0.19681877       0.45748603       0.51154017       0.10169590
H       15.13386898       5.50710900     -10.37344183       0.15763479       0.35216527      -0.06590049      -0.05123085      -0.00494856       0.65914625
H       -1.61733892       8.18683597       0.41955183      -0.01710059       0.11313862       0.05122585       0.83132100       0.75591445       1.67036009
H       -1.56143601       8.05712731      -1.28138598       0.25252019      -0.08228331      -0.19153076      -0.53891236      -0.97625542       1.12120616
H       -1.72041341       6.47118667      -0.24598458       0.25987261      -0.01543841      -0.09476757       0.01156798       1.63294506      -0.02465948
C       29.05286345      32.72531682      -3.57394878       0.17246555       0.97702403       0.41552288      -0.03969866       0.58416682       0.23084286
C       28.34464052      31.48082953      -3.13313704       0.12933864      -0.89735561       0.36471697       0.50220311       0.01298654       0.23160851
O       27.85915692      31.56565019      -1.87779005       0.51955969      -0.25761151      -1.27352523       0.49988234       0.34354722      -0.87169528
O       28.32392137      30.47833329      -3.84788207       0.45781931      -0.74802891      -0.47723222      -0.53053021       0.00483209       0.57943052
H       14.05345938       8.59073715      -0.81557803       0.15917292      -0.15435437       0.03692038       0.50505996       0.47070342      -0.42710966
H       29.66640507      33.11778927      -2.76875527       0.29956307       0.22260337      -0.23204510       0.11987718      -0.02972908       0.18809661
H       28.38035793      33.54503112      -3.83430130       0.03208163      -0.09871191      -0.19450649      -0.41604266      -0.15708676       0.14043674
H       29.67777908      32.57358188      -4.44097415       0.13506383       0.06995526       0.21968765       0.09964896      -0.46164924      -0.15956064
C       -0.17972986      -6.72330545       5.34721119      -0.00844622      -0.55432220      -0.01223536       1.26888943       0.28138894       0.70925868
C       -0.01219555      -7.92890945       6.22390864      -0.17219230       0.12758765       0.41685945       0.38894808       0.27949950      -0.92883658
O        0.84471490      -8.78353193     -13.16234312       0.18462164      -0.17676029      -0.77777522      -0.21173120      -0.07415867       0.03736867
O       -0.75693984      -7.99617429     -11.86935264      -0.09760354      -0.30555523       0.44758388      -0.59891129      -0.35253787       1.21540761
H       15.41071694       0.65712195      13.85893673       0.05539127      -0.21064752       0.03866807      -0.76761961       0.16708502       0.48503143
H       -1.17276241      -6.40582374       5.17006184       0.01202373       0.09371022       0.18517333      -1.17785800       0.03619980      -0.03013754
H        0.41007670      -6.73456847       4.45213269       0.00290717      -0.35930547       0.00048567       0.11250257      -0.59975135      -0.53956276
H        0.30862140      -5.92276438       5.89246225       0.03770227      -0.02962382      -0.12252093      -0.11308169       0.49506050       0.33708534
C       -2.98444185      -6.31004841      10.20184385      -0.65944268       0.10694363      -0.15465782      -1.78599179       0.47735551      -2.44101572
C       -3.35265533      -6.70463242       8.76269840       0.14579329       1.10685253       0.46641158       1.30132425      -1.49676394      -2.29852486
O       -4.33519774      -7.52051309       8.51560134       0.09506612      -0.21153268      -0.07775546       0.43613869       1.21259451       0.86624801
O       -2.55979782      -6.37761817       7.76412056      -0.60990185      -0.08916356      -0.64330143      -1.33388960       0.07666397       2.10640287
H       -1.46719642      -7.22610320       7.49051401      -0.21624041       0.22219529       0.08333167       0.12903720      -0.07230657      -0.55692601
H       -2.39076833      -5.42798541      10.02624173       0.05122307      -0.01431737       0.07375145      -0.07120092       0.36644799       0.85571653
H       -2.44536164      -7.08086943      10.65579691       0.00661990       0.00616705      -0.07314533       1.03171086      -1.25037861       0.68182081
H       -3.94147877      -6.24709972      10.72655062      -0.25399076       0.22799159      -0.00774152       0.46126395       0.61651266       0.25997442
C       -4.62456759       2.24747763      18.26531190      -0.61497092       0.28948706      -0.10457662      -1.06753576      -1.95314837       0.83095407
C       -3.67214337       1.75455085      19.34596881      -0.35122913       0.19589765      -0.59244802       0.86632967       0.62387747      -1.30672348
O       -3.91578122      19.94617512      20.14105227      -0.04426483      -0.19753514       0.46423856      -0.82770133      -0.34402734       0.16918701
O       -2.56551201       2.35459889      19.33898699       0.39491783      -0.37152664      -0.58480915       0.68864787       0.12897742       0.38361603
H       25.16211464      13.77313797      11.73637590       0.01093501      -0.04530256       0.01209978      -0.25388008      -0.33039105       0.01162958
H       -4.49401951      20.75568939      17.37918688       0.14117993      -0.00485443       0.12115168      -0.02923559       0.30656782       0.19265419
H       -4.42477039       3.27661808      18.00568395      -0.06884876       0.03084589       0.13794514      -0.24029273       0.17272694       0.08857830
H       -5.64343843       1.99318021      18.65258917       0.07306056      -0.02773253       0.07091501       0.58587736       0.67325002      -0.85302520
C        6.19911319      13.55817345       0.76088624       0.41424412       0.30345420       0.41267707       3.17804909       1.36735606      -1.86463976
C        6.66694502      14.70070126       1.61770868      -1.50539478      -0.80109886       0.92732611      -0.78081036       0.55055058       0.51316690
O        6.02301545      15.76034589      20.76237040      -0.16530864      -0.10076430      -0.51800591       1.00488389      -0.71738470       0.32489318
O        7.75702385      14.54346793       2.40743434      -0.00518929       0.99642257       0.39228563      -0.61035502      -0.02731347      -0.77235651
H       11.98502265       1.94495459      -4.76723555       0.41351749      -0.09368458      -0.11773976       0.38444716       0.31626785      -0.63680053
H        5.58664957      14.13394664       0.02982551      -0.03712176       0.13577364      -0.25586662       0.09635998      -1.44984233       0.36206248
H        5.74523639      12.77803366      20.45531145      -0.05325107       0.13517504      -0.06863533      -0.98086971      -0.72250146       0.60725921
H        7.17220822      13.08911812       0.28353027      -0.31447637      -0.26500631      -0.01245175      -1.96741700       0.83779263       0.54044437
C        5.98956767      35.50858323       9.79338338       1.19569619       0.76019664       0.36330092      -0.45666528       0.24819273       0.49928665
C        6.46552549      34.32380284      10.54960716       0.49685052      -0.26757142      -0.70443757       0.60833704      -0.66532892      -0.10168079
O        5.55073400      33.61962516      11.15225452      -0.50846342       1.22771133       0.18735457      -0.72136331      -0.28162760       0.60865104
O        7.65105217      33.96730445      10.66509455      -0.78019618      -0.54025996       0.81653585       0.35051090       0.78403592      -0.55745023
H        7.98634801      32.51837197      10.95096401       0.20128641      -0.05785350       0.04847998       0.31512025      -0.71567333       0.32519057
H        5.34670306      35.27337188       8.92178438      -0.24884731       0.04439951       0.07684811       0.23950405      -0.21599597       0.57117373
H        6.86725880      36.04451717       9.47811726      -0.13026153       0.02226185      -0.16329912       0.18133196       0.51244682      -0.25201777
H        5.37152716      36.09960691      10.51377388      -0.04513618       0.27094011      -0.24365365       0.38487765      -0.24912624      -0.68314254
C       13.69980001       4.99566897       2.79312493       0.79764591       0.36514607      -0.58687440      -1.24579155       0.83436799       0.01540524
N       12.55993011       4.38222797       2.12313521      -0.22363186      -0.41343677       0.17612974       0.05133134       0.59946674       1.44851625
C       12.67561452       3.22637790       1.45532471       0.71303007       0.08634021      -0.49043302      -0.21955371      -0.76587331      -1.32307589
C       11.41322112       2.93562021       0.96849897      -0.42612595       0.67761645      -0.17396332       0.51048380      -1.08968449       0.36822158
N       10.54795144       3.87067925       1.43625715      -0.43995575       1.04458247       0.15863474      -0.14946699       0.77201122       0.18173526
C       11.26241373       4.74656103       2.14395552      -0.28265647       0.53885486       0.61668348      -0.96953523       1.86378527      -0.05240965
H       14.23091995       4.23444839       3.30372938       0.13046529      -0.19282279       0.21503364       0.44092911      -0.73681617       0.50475395
H       13.34717165       5.75325545       3.51379512      -0.06620815       0.34931175       0.06165388       0.18241090      -0.24496341      -0.49449921
H       14.29284515       5.40809562       2.00540931      -0.27816068      -0.16982838       0.31946627       0.61740488       0.58092421      -0.19375677
H       13.65291569       2.78620193       1.32088682      -0.09697068       0.29211810      -0.05693511      -0.47159606      -0.02422315       0.23231581
H       11.06696988       2.02685648       0.47376315       0.24061550      -0.08904852      -0.15535744       0.20777671       0.45190528       0.12619424
H       10.86291728       5.76431492       2.49241645       0.03865427      -0.06029740       0.32264866       0.91572458      -1.82338190      -0.36726287
C       -8.09394466      14.24630179      49.92107783       0.55763257      -0.52336745       0.67752264      -0.46293184       1.18742502      -0.33458525
N       -7.58937343      14.89853393      48.72435612      -0.94565204      -0.26903099      -0.52032829       1.19458878      -0.61220056      -0.27714568
C       -6.40979818      14.60616416      48.01649388      -0.87362889      -1.00822212       0.05909918      -0.60719836       0.39043468       1.22296786
C       -6.51848113      15.24692185      46.84250297      -0.36228323       0.38570958      -0.45172243       0.09060290      -0.57014430      -0.78623748
N       -7.73014832      15.86049016      46.72690151      -0.07362697       0.81900332      -0.05147073      -0.53585231       0.62242162       0.73514116
C       -8.31468535      15.68007737      47.92227219      -0.04219706      -1.01263690       0.14804181      -1.42158592       1.00790262      -0.62132466
H       -9.18146289      -4.71141352      49.92603158      -0.09232867      -0.15589161       0.15966465       0.62209463      -0.34116602       0.39339769
H       -7.57180173      -4.51292173      50.78376867       0.14128930      -0.03384589      -0.34121092      -0.13191444       0.28126806       0.25329044
H       -7.86349172      13.21691999      49.86574140      -0.11543148       0.11945312      -0.04081741      -0.07211550      -1.26106989      -0.13906519
H       -5.52841853      14.14591074      48.38811367       0.13554943       0.00570834      -0.36741733       0.05666426      -0.44087100       0.67507762
H       -5.75953461      15.16265076      46.09562674      -0.11786620      -0.14395002       0.02240209       0.04001807       0.39664668      -0.68881547
H       -9.24480303      16.21533482      48.24970576       0.06435588      -0.05230984      -0.23505634       1.02091694      -0.82434726      -0.38391125
C       21.60081151      19.39789057       8.57611859      -0.23380426       0.44676186       0.69979467      -0.25684327       1.24544394      -0.44827825
N       22.72875731      19.83436670       7.74520679       0.11139636       0.30721951       0.38298616      -1.45932508      -2.03823686       1.35604429
C       23.02266371      19.30474150       6.52398016      -0.21730578      -0.42287606       0.34646952      -0.32477427      -2.09177065      -0.52795690
C       24.15072292      19.90319338       6.07310420       0.50931337       0.37683154       0.57394080       0.23856807       0.82061213      -0.71795833
N       24.50782229      20.78608449       7.06533269      -0.07214940       0.82908037       0.33010852       1.60420585       0.54697311       0.75395763
C       23.70252012      20.59895679       8.14449804      -0.35472446       0.27603898       0.70579275       1.63156569       2.46238327      -0.15557736
H       20.79087833      20.10622122       8.46190768       0.12794818       0.12188833       0.11195922       0.00600094       0.23709863       0.43223470
H       21.80586299      19.13715759       9.59137440       0.03611155      -0.55836136      -0.23688775       0.76739943       0.65878940       0.77908278
H       21.20955991      18.50585194       8.22790404       0.16502810       0.07531248      -0.06648415      -0.42471245      -1.79758620      -1.34144139
H       22.69050632      18.27440818       6.31760019       0.11764650       0.11295108      -0.04402435      -0.11848368       0.83783752      -0.20632803
H       24.64734830      19.79759313       5.08845915       0.13501324       0.08481450       0.22997912      -0.32257837       0.32930920       1.12433410
H       23.84727076      21.06978960       9.14209933      -0.14103568       0.06503893       0.12217820      -0.22960511      -0.53608876      -0.78520054
C       19.75320321      26.31228062       7.65915736       0.66118442      -1.17762518      -0.46825913       1.42582321       1.08908510      -1.20149922
N       18.41171110      26.39806904       8.11417918      -0.60349419      -0.10811416      -0.65100709      -0.28892255      -0.09596373       0.48211575
C       17.86352328      27.51520266       8.69697198      -0.56642693       0.22460693       0.51831064      -0.68768644      -1.60199857       0.24567811
C       16.57459989      27.15224067       9.00594737       1.67984547      -0.20188848      -0.47401583      -1.28919530       2.31854439      -0.39557680
N       16.28141484      25.91500018       8.52255950      -0.03226427      -0.86625588      -0.04975089       1.20649242      -0.89877379       0.01549982
C       17.45321962      25.44518588       8.04980054      -1.00960398      -0.00046027       0.29755225      -0.85512620      -0.74808466      -0.13848209
H       19.92314794      27.06915852       6.83885807       0.47717609      -0.03155153      -0.02483141      -0.05855018      -0.74867088       0.85652983
H       19.93849744      25.33125491       7.30011985       0.13440042      -0.07137881      -0.29235440      -0.03346658      -0.91083968      -0.65857279
H       20.53019112      26.43523925       8.42692873       0.15952911      -0.04462030       0.23626866      -0.83895099       0.41601685       0.08579648
H       18.42911994      28.39388057       8.77510772      -0.24242814       0.06827718       0.04230887       0.36905572       1.03357506       0.04265033
H       15.77377084      27.86095461       9.32448282      -0.37785379      -0.09773898      -0.23493084       0.84377003      -0.90806729      -0.01602167
H       17.60703688      24.36727235       7.81968943       0.28860993      -0.31746762       0.27742460       0.18582110       1.22801375       0.02851810
C       13.83730353      -0.11389894       9.77878861       0.04217259      -0.06559257       0.52079221      -0.88462627      -0.45291400      -0.85357773
N       14.78584649       0.69199538       9.07018179       0.47324331       0.13694406       0.56502979       1.30131829       0.51986319       0.44221619
C       14.64709482       1.10872153       7.78010216      -0.81129977      -0.89702509      -0.42335941      -1.18005919      -0.17407656      -1.92383802
C       15.76046616       1.82492747       7.45879600       0.65588551      -0.34909522      -0.84050178       2.64330912      -0.20451319       1.16701531
N       16.67963928       1.77290436       8.56856988       0.51721763      -0.13733867       0.26491112      -2.61885381      -0.01172197      -0.19241494
C       15.96248764       1.20828554       9.56163899       0.10940244      -0.93668955       0.29850440       0.08343256      -0.44444394      -1.92115033
H       13.73128233       0.29105125      10.74530404       0.06174308       0.14699339      -0.13066984      -0.45161271       0.74645376       1.15308392
H       14.11286871      -1.17153152       9.96068283      -0.19475130      -0.12330339       0.11664242       0.06703910       0.42932528      -0.83553463
H       12.90381319       0.01389206       9.18293630       0.33268224       0.33739299      -0.24398532       0.40731114      -0.63750064       0.79741228
H       13.76896023       0.82318397       7.11603223       0.30866989       0.05278290       0.18856744       1.35809445       0.43154967       1.25468540
H       16.18069221       2.33416483       6.59195181       0.20675716       0.03580631      -0.16219612      -0.93324006      -0.38005146       0.04645889
H       16.18329743       1.21246676      10.60320488       0.03077537      -0.08355257       0.35295791       0.19309421      -0.09439240       0.44784695
C       22.91599804      -6.95724442       8.41357924       0.11579553       0.93544293      -0.10303194      -0.95083040      -0.71476567      -1.31477952