640
Lattice="19.152215 0.0 0.0 0.0 19.152215 0.0 0.0 0.0 19.152215" Properties=species:S:1:pos:R:3:momenta:R:3:forces:R:3 energy=-80021.5078125 stress="-0.001030337531119585 -0.0009936777641996741 0.0015073209069669247 -0.0009936777641996741 -0.003682544454932213 0.0010531821753829718 0.0015073209069669247 0.0010531821753829718 0.0009698203066363931" pbc="T T T"
C        2.18759835       9.53561220       2.96200285      -0.06000984       0.33034750       0.15971497       1.66129220       0.96955550      -0.42138878
C        0.87404397      10.03129774       2.51078509       0.39499609       0.15260936       0.01721907      -1.22974610       0.29174358       0.51907527
O        0.64769173      10.72282070       1.51953266       0.28656565      -0.14557058       0.07164256       0.48478436      -0.23788929      -0.38263965
O       -0.14008004       9.82263003       3.34755207       0.54690233      -0.70815284       0.16067678      -0.78020918      -0.04656619      -0.13266385
H        0.08288128       9.19181013       4.11836531       0.06827815       0.15337551      -0.09276294       0.47175321      -0.25851929       0.29634625
H        2.32952960       9.75668955       4.04575801       0.14708404      -0.05141973       0.04419464      -0.11138116      -0.38295445      -0.86614323
H        2.89350082      10.17178373       2.36849593      -0.11673377       0.13493593       0.05899371      -0.16236630      -0.75780660       0.58145535
H        2.42122680       8.47288376       2.75329101       0.06879791       0.37020963      -0.39944595      -0.41544378       0.49385247       0.14461836
C       26.22022776      -6.55140645      13.50605822      -1.43825440       0.94025661      -0.03352846       0.07723784      -1.37533641      -0.85327709
C       24.91408136      -6.42304025      14.28751930       0.61787015       0.03026721       0.33228258       1.80423927       1.04925883      -1.26360142
O       24.36227518      -5.29450904      14.32236103       0.71580036      -0.59306777       0.71532643      -0.30783314       0.61379814       0.22528809
O       24.48016205      -7.44002159      14.88031403       0.93905171      -0.28333723      -1.77739646      -0.95280164      -0.81636763       0.61163050
H       26.72800545      11.81503421       9.42418722       0.15362001      -0.05612726      -0.00215651       0.38668692      -0.38784209      -0.87022471
H       26.08640919      -6.27723347      12.40904264      -0.28214555      -0.01610913       0.12184081       0.17184970       0.00771098       1.51728165
H       26.57003340      -7.62891877      13.48914004       0.13411741      -0.31899317       0.02887066      -0.41210318       1.23336530       0.16582088
H       26.99991517      -5.95064707      14.00360020      -0.08238504       0.06274682      -0.04981164      -0.15642062       0.00132623      -0.53548574
C       12.16930333       4.82166390      -3.78088219       0.68034079      -0.11596485      -0.58853126       0.61003977      -0.24551955      -2.28120160
C       12.10530133       3.52890026      -4.56076501       0.06456187       0.30925143      -0.01023968       0.41723251       1.79330063       0.23647076
O       13.16514535       2.75724457      -4.21379650       0.60204544       0.03986915      -0.15784252      -1.45517957      -0.42180982      -0.59248745
O       11.32139789       3.25464142      -5.47303996       0.66255730       0.69016285      -0.38128885       0.32614928      -0.18799797       0.78988701
H       10.49465940      17.45667603       0.21056261      -0.02543225       0.29430690       0.03310543      -0.55441827      -1.21319008       1.00409293
H       11.22848837       5.10642898      -3.41147243      -0.14265856      -0.05085031      -0.00220624      -1.32811654       0.11377347       0.84784591
H       12.37861803       5.64065891      -4.52655542       0.02440653      -0.06569546       0.17043888       0.20318860      -0.73686981       0.71103173
H       12.92450540       4.68601234      -3.03746389      -0.06243365       0.12834808       0.09818497       0.21058680       0.48595032       0.46251273
C       24.33964385      37.08357841      16.98956360       0.82483778       0.37477701       0.49479113       1.87067461      -1.15297902       0.28820068
C       24.34692328      35.99723920      15.97833468      -0.71401471      -0.62146542      -0.23215124      -0.43094361      -0.63845921      -2.24960113
O       24.01847454      34.75533269      16.32299000      -0.69953943      -0.79313912      -0.21413486       0.10298291      -0.17116064       1.47275376
O       24.56867456      36.19293135      14.77621764      -0.28091551       0.16047689       0.19404056       0.20075698       0.84909701       0.50593591
H       20.47261513      27.34840436      10.38888952       0.17802115       0.02301542       0.08861796       0.79917955       0.27855873      -0.92390966
H       23.35037628      37.38364585      17.18316989       0.13719487       0.18179643       0.08591627      -1.26909781       0.52365726       0.23032968
H       24.94124952      18.71719709      16.54579655      -0.11896559       0.26347774      -0.25685411      -0.13899337       0.28564605       0.23256879
H       24.78287067      17.57152160      17.94780288      -0.02036260      -0.13312521      -0.20507631      -0.38212422       0.35938722      -0.70881939
C       26.29017881       5.98385758      25.83326697       0.16290343      -1.11391936      -0.04364698       1.06969285       1.73168492       0.49637944
C       27.80431821       5.89341840      25.81227871       0.66101159       0.05325514       0.57059874      -0.12364203       1.37995982      -0.18506467
O       28.50332464       6.78746237      26.32084173      -0.46692381       0.15936181      -0.51089829      -0.11106485      -1.21673632      -0.51036417
O       28.22879499       4.79887545      25.17572054       0.13916051       0.18288030       0.78404637      -0.10469866       0.35710061       0.51360971
H       10.63498688       3.77294439      29.52730069      -0.11579043       0.08344155       0.00539631      -0.56574124      -0.42575151      -0.15144953
H       26.10118948       5.23222162      26.56958845       0.10480356      -0.05454925       0.01930295      -1.12664402      -0.63788450       0.30712208
H       25.89142036       5.75385843      24.84810283       0.04474089       0.05980445       0.30694810      -0.24969783      -0.09197415       0.21668261
H       25.99261383       7.01352707      26.23638008      -0.05967634       0.12686037      -0.01299466       0.27790418      -1.60100126      -0.72578001
C       -6.55604751      -9.19029080      13.85959777      -0.25988292      -0.31304221      -0.32709461      -0.24330547       2.84039474       0.24242032
C       -7.27357000      -7.92183531      13.25770107       0.53918754      -0.73401157       0.18675408       1.48116958      -2.47752714      -0.00375009
O       -8.11536030      -7.36991629      14.09453595      -0.55850401      -0.12367284       0.20619653      -0.29574591       0.73609048      -0.58796716
O       -7.04111594      -7.59306641      12.09306204       0.18741541      -0.42109781      -0.25349564      -0.24829370       0.08108145       0.73530424
H       -8.39517367      -6.50054668      13.60868574       0.27600855       0.04453889      -0.29733635      -0.14653701       0.57661200       0.48919004
H       -7.13388581     -10.01874142      13.62845292      -0.20309506      -0.23790630       0.08646174      -1.04918098      -1.71724057      -0.75338757
H       -6.60356972      -9.14544168      14.95638028       0.26978840       0.03081891       0.17427772       0.58105963       0.25298682      -0.32199076
H       -5.57779517      -9.25886402      13.38846729       0.02116968       0.07166791      -0.13073334       0.03845398      -0.08586777       0.36839932
C       26.38813056      11.00569477      -1.05551443       0.30449804       0.42664909      -0.28934173       1.12672043       0.56616867       0.41033590
C       25.02105693      11.09803124      -0.49993231      -0.02740867       0.04047448      -0.15077217      -1.87462604       1.43462527       1.29773736
O       24.03519609      10.40273724      -1.15693621      -0.69912421       0.26106119      -0.12903030       0.73198456       0.94722468       1.59409368
O       24.74140800      11.90615358       0.45019688       0.10141063       0.32625119       0.80873083       0.33773482      -2.25396252      -2.30996084
H       13.10394416       3.16477650       2.12251689       0.21277610      -0.00938917       0.09489870      -0.37311649      -0.80345833      -0.14871559
H       26.74884873       9.97798292      -1.14402218       0.12766991      -0.18871386       0.25578965      -0.03575841       0.08725501       0.06996445
H       27.14078738      11.65735189      -0.53033894       0.12624105       0.12795509      -0.09203017      -0.93334484      -0.78480315      -0.20096289
H       26.30731438      11.42091648      -2.05064932      -0.19885234       0.06046853       0.10925794       0.11864254      -0.03790005      -0.66518992
C        4.46662301       7.74611071       9.42249773      -0.28910177      -0.07003263      -0.74230547       0.11281845       0.12181495      -0.87195331
C        3.11554859       7.49258834      10.01823675      -0.14730409      -0.45730966      -0.48179559       0.63940984       1.93528438      -1.05259752
O        2.17129350       8.41305818       9.72490803      -0.54604804       0.40075172      -0.96374945      -0.51496989      -0.78010988       1.16339207
O       22.10423274       6.52530179      10.71749332      -0.65093971       0.71319202       0.40969074      -0.94718528      -1.54382956       1.33753812
H       -0.18085842      -0.66555961       4.69798359      -0.00511447       0.10773726      -0.20822994      -0.85929739       0.05061131      -0.28482914
H        5.18874828       8.18617972      10.15332411      -0.08618486      -0.30425171       0.10826129      -0.70589578      -0.37665147      -0.55471420
H        4.33526617       8.41283153       8.53415122      -0.18926169      -0.23095425      -0.00211944       0.37389722      -0.59568411       0.86783367
H        4.82407224       6.75100430       9.08143374      -0.24722441       0.27552605       0.10078136       0.05973348       0.63566422       0.19813950
C      -17.77510568       0.29186516      -8.32519929       0.17543142      -0.80472328      -0.75232890       0.07827383      -1.07233584      -0.01937787
C      -16.44080352      -0.46547070      -7.99310637      -0.21661463      -0.68773480       0.62653104      -1.54950976      -0.16031772       0.01472151
O      -16.11235104      -1.43793098      -8.68717044      -0.00836701      -0.22385083       0.22582253       0.22541392      -0.13959503      -0.62266004
O      -15.83154664      19.05590410      -6.92868084      -1.34184998      -0.53183021      -0.56179065       0.06218505       0.85006440       0.46229613
H      -16.52181562      20.13498466      -6.37894209       0.26925898      -0.28643729       0.12947940       0.51094210      -0.08686405       0.46451420
H      -18.06221153       0.17448680      -9.36070089       0.18697562       0.04101502      -0.10766426       0.10855511      -0.33102182      -0.36313090
H      -17.73957400       1.33736365      -8.14236234       0.06825830      -0.07893570      -0.22641133       0.25004983       0.98412418       0.48055786
H      -18.62249888      -0.08291819      -7.73890179      -0.06549418      -0.06119469       0.29022384       0.29121903      -0.32014069      -0.03210821
C        1.58315703       5.41421124       2.32660459      -0.53321930      -0.77200527       0.51475130       0.09419075      -0.80683100      -1.68617809
C       19.27425815       5.23210088       2.41478253      -0.27952171       0.18139548      -0.06057765      -0.77927089      -2.27538586       1.98800719
O       18.59259712       6.24731450       1.96072787       0.07198466       0.68837724       1.36615230      -0.82576829       1.78372109      -0.51796430
O       -0.46497077       4.27053339       2.93316449       0.38548667       0.01665826      -0.50955623       0.79739141       0.40806168      -0.20181853
H       12.80309998       8.00839977      -8.80266698      -0.03243220       0.17094299       0.10129033       0.13420631      -0.45271039       0.38945115
H        2.25917913       4.70705066       2.80936992      -0.05547151      -0.05595309      -0.10866266      -0.71694207      -0.59620178      -0.23923528
H        1.84776812       6.31816166       2.79779984      -0.03711119      -0.18801968      -0.02755525       0.19842653       1.50590873       0.01211572
H        1.71602300       5.44003411       1.20777008      -0.12704643       0.03084704      -0.23469870       0.69967973       0.34139341       1.11967158
C       29.97140877      28.05966560      -2.12258732      -0.29930860       0.49449068      -0.06106118       1.90282440       0.15941732      -1.51795650
C       29.77760418      26.96031360      -1.18988225      -0.77248028       0.34040008       0.57173125       0.36492193      -0.83658409      -0.23320878
O       28.60541207      27.06359533      -0.60296849      -0.26870059      -0.08379974      -0.82710815      -0.52766758      -0.79558480       1.53761744
O       30.57734181      26.03530716      -1.02886652       0.06369892       1.66731870      -0.07428632      -0.43419299       0.37375206       0.28951389
H       17.68382868       6.28662539       2.39736889       0.02228866       0.00581932      -0.06635402       0.00622159       0.03320767      -0.28270781
H       30.49815951      28.87964709      -1.61368075       0.02902283       0.22366176       0.00149285       0.11886147      -0.11966139      -0.25953391
H       29.06562340      28.45939220      -2.51415130      -0.09141034      -0.06407548      -0.18388992      -0.86260915       0.22902241      -0.12631042
H       30.55374272      27.63527217      -2.98882086      -0.04161943      -0.04335745      -0.03448515      -0.26385051       0.80077505       0.84540218
C       -7.42768106      -5.47931757       9.15205579      -0.13275357      -0.71946608       0.07649344       0.09715522       1.24879789      -0.06825569
C       -6.10098825      -4.64649799       9.12472905      -0.89104045      -0.23978662      -0.39551925      -0.97647572      -0.71809351       0.38131404
O       -5.14286645      -4.96224073     -10.72559152      -0.60872080       0.24947863      -0.47232310      -0.21490872       0.11131743       0.31763852
O       -6.06392720      -3.52743767      -9.25477042      -0.53037739       0.32909151       1.01642778       0.71801484      -0.99367470      -1.20403266
H       14.67875449       1.26664562      11.76702866      -0.07413627       0.05722809      -0.23490089      -0.19326299      -0.35818881      -0.10541651
H       -7.38342120      -6.59086876       9.05848421       0.20763281      -0.16663136       0.04077259       0.42768344       1.14821136      -0.41646391
H       -8.11466088      -4.96853403       8.44089583       0.11777670       0.14087979       0.06850512       0.50288230      -0.77500826      -0.29010820
H       -7.98663130      -5.23533862      10.03906099      -0.20732105      -0.13575554      -0.09531538       0.08535539      -0.16998535       0.88372302
C       -6.37404414      -4.61351754      13.05239396       0.69448828      -1.17434679      -1.64888599      -0.07310164       0.28783870       0.52240515
C       -7.80569398      -4.32886743      12.59574155      -0.69165409       0.45898031       0.76261860       1.28555906       0.16698928      -0.89276898
O       -8.65945569      -5.01884283      13.17959336      -0.46940628       0.05972872      -0.22539372      -1.89118314      -0.57536352       0.70966583
O       -8.05499118      -3.51248317      11.64133990       0.73578843      -0.00631992       0.46041325       0.72885764      -0.18728113       0.35884380
H       -6.81302729      -3.49782793      10.54763964      -0.19077913      -0.42409244      -0.16892832      -0.88135660      -0.17371172       0.72713214
H       -6.04735521      -5.56413052      12.63042948       0.16379019       0.15721516      -0.16699433      -0.01096495       0.08901991      -0.02309355
H       -6.37705826      -4.70760742      14.14977797       0.13126867       0.02350339       0.14620208       0.00181757      -0.12946582      -0.34155655
H       -5.66905678      -3.83900306      12.79953308       0.01892447      -0.13018637       0.14417451       0.24588826       0.35876080      -0.38529730
C       -7.25238870       3.61477904      19.06219107      -1.02405512      -0.11209626       0.24820273      -0.07916649       1.68711102       0.72190034
C       -5.81079601       4.03984339      19.27581943      -0.79142231       0.22589352       1.11761498      -0.49557278      -0.15447150       0.31553480
O       -5.28589603      23.03569267      20.44606768       0.47660379       0.63278708      -0.97575530      -0.20436990      -0.32356316       0.10571742
O       -5.14558045       4.50439012      18.31843511      -0.13173769       0.44791353      -0.08247482       0.31383836      -0.22530264      -0.24359524
H       18.10386707      12.34846533       7.98882784      -0.08092588      -0.02989017      -0.01206388      -0.30758005       0.21758226      -0.65322155
H       -7.76765547      22.75557592      20.05254039       0.07688569       0.01627718       0.07194891       0.25333044      -0.44051021      -0.95450234
H       -7.22827636       2.67153608      18.54834536      -0.17510540      -0.03169190      -0.19287026      -0.28917944      -0.46149838      -0.09726021
H       -7.75802061       4.38917128      18.44474843      -0.25925122       0.12390208      -0.03414421       0.43264636      -0.54574955       0.25153801
C        7.22305108      14.90355010      -0.13996429      -0.63678532       0.41673722      -0.19790073      -0.29138434      -0.16130978      -0.50193202
C        6.44877390      16.03849354       0.42186379       0.76799947       0.49918092       0.60503964      -1.01438427       1.27062392       0.19033468
O        5.22419376      16.20925708      19.53864603       0.24966402       0.37458471       1.66112546       0.35338163      -1.10309196      -0.17329809
O        7.15100246      17.03193625       0.97302875       0.54303197      -0.07081739       0.36119130       2.20015192      -0.88279605       0.27675879
H       12.92323526       1.95483476      -4.73606466       0.05837424       0.01964236      -0.09653248       0.96998745      -0.70813477      -0.09407359
H        6.76846723      13.97173871       0.15667895      -0.03389082      -0.10119033       0.26068580      -0.57164025      -0.31440151      -0.47261304
H        8.19666336      14.85716270      19.45181133      -0.01304215       0.03336935      -0.15603394       0.85621303       0.29533696      -0.01822817
H        7.30644157      15.03382337      -1.25126630      -0.10149092      -0.21456655      -0.05324080      -0.18185316      -0.40723833       0.89668161
C        0.80699406      32.15385073       4.71496058      -0.74070228      -0.12744345      -0.26892303      -0.66592956       0.71019161      -1.03776026
C        0.58553111      31.88289767       6.18734303       0.61947973       1.21810311       0.67418873      -0.66211879      -0.05544138      -0.07066888
O       -0.56835565      32.16009767       6.63972988       0.22745777       0.78834032       1.52042235       0.00752568       0.01242245       0.10900187
O        1.51250349      31.39221631       6.89626988       1.59797421      -0.02164133      -1.05534026       0.02096331      -0.03401703      -0.20851350
H        2.64212196      30.60589511       6.14305516       0.09205576      -0.16090250      -0.08537629      -0.67443490       0.69680071       0.25365490
H        1.81317877      32.44291886       4.44439555      -0.07838377       0.05258080       0.16464105       0.46199304       0.12707034       0.32557464
H        0.13032369      32.96758572       4.34681681      -0.26516924       0.07466138      -0.08958453       0.47242275      -0.70523489       0.50318283
H        0.60323179      31.28999883       4.06743024       0.12183005       0.02390114       0.12637797      -0.20426065      -0.05770313       0.48198670
C       15.03130088       4.12856392       5.02787391      -0.56590089       0.16754664       0.42954525       1.00813699       1.25122261       0.94020629
N       13.80692929       4.76395550       5.42046345      -0.34598685      -0.29360551       0.08706331      -1.08099747      -0.11787093      -0.44031358
C       13.55438023       6.03099611       5.88110309      -0.18183226      -0.45394890       0.18179412      -0.09213912      -0.47033122      -0.16307557
C       12.20416622       6.09262671       6.09341918      -0.26238220       0.35845933       0.78662432       0.26608545       0.67919791       0.71943742
N       11.62474210       4.90012532       5.69093957      -0.47099966      -0.11596931       1.39162168      -0.73905098       1.49656177       0.91140974
C       12.61131172       4.13858474       5.34139781       0.16918753      -0.76791226       0.31968051       0.78713000      -0.87702912      -0.33987427
H       14.83398164       3.41219273       4.28214134      -0.36591204      -0.23406953       0.07008208      -0.33596954      -0.86174089      -0.94202769
H       15.40226554       3.64870862       5.92683276      -0.21255435       0.02953063      -0.17007146       0.64068830      -0.12350136      -0.04185405
H       15.73530823       4.88400077       4.62699197       0.06517347      -0.06260139      -0.05770740      -0.32409096      -0.47032291       0.37301993
H       14.34139055       6.74119851       5.93645925      -0.18779893       0.24487110      -0.01484773       0.35816845       0.48784626       0.15187554
H       11.73603568       6.83136241       6.75344278       0.15305604       0.00074249       0.19311421      -0.22743772      -0.50462568      -0.61457396
H       12.51387813       3.10941985       5.09610041      -0.07559221       0.24314995      -0.10792484       0.05400848      -0.63570070      -0.27750316
C      -13.42064561      16.24917696      49.84677642      -0.10644408      -0.69562036       0.94838968      -0.16023991       2.55514836       0.37703037
N      -12.27667928      16.65177906      49.10281459      -0.09699609      -0.17764149       0.87140084       2.13288927      -1.00077093      -1.13038886
C      -10.91794423      16.52269240      49.39972599       0.69827321      -0.50060127      -1.36568964      -0.76843226      -0.66230774       0.87496912
C      -10.23330334      16.97350512      48.32452485      -0.70296284       0.59922759      -0.00560884       1.08220828       0.08873114       0.20073915
N      -11.12384482      17.32899268      47.34838540       0.17524777       0.81362843      -0.60801754       0.88473922       0.31526661      -0.19845247
C      -12.32048387      17.13004976      47.85615587       0.30229936       0.20832326       0.63909145      -0.14940813       0.18011117      -0.33254266
H      -14.23244086      -3.15366750      49.20852488       0.00881963       0.04152330       0.15378657      -0.66823041       0.15001437      -0.69704211
H      -13.58909404      -1.94095211      50.36649285       0.04089127      -0.19146942      -0.10957085      -1.07194138      -0.99878448       0.55298012
H      -13.26070867      15.43360594      50.47523730       0.02315771      -0.21142700      -0.24885281       0.63418245      -1.10297167       1.31822729
H      -10.53675250      15.92757057      50.21207814       0.11528797      -0.23581827       0.14764931      -0.17637154       0.08154121       0.20018886
H       -9.13065381      17.07127807      48.30197894       0.03189912       0.10026796      -0.12260019      -1.03279185      -0.04871680      -0.31870094
H      -13.21927588      17.42515653      47.38436475       0.15712714      -0.25947153       0.22391137      -0.77198529       0.06316371      -0.44168884
C       25.46287835      20.20386937      10.69880716       0.49945558       0.13785396      -0.04434897      -0.40026763      -0.86580342       1.26131415
N       26.31891184      21.29549029      10.33514958       0.00749691      -0.24836486      -0.15765851       0.39240754      -1.17680514      -0.08501400
C       25.92793823      22.49104046       9.80946887       0.01373607      -0.59079774       0.79525238       0.39770421       0.68064684       0.51243746
C       27.04235287      23.26414095       9.90810847      -0.38056407      -0.46312664       0.51069862       0.89027691      -1.48053491       0.20668523
N       28.14405512      22.56466157      10.38458247       0.06792954       1.04724459      -1.93085731      -1.17841196      -0.82976389      -0.04669380
C       27.66640226      21.32544427      10.63324469       0.03793218      -0.05410687       0.11721846      -0.87606019       1.44650877      -0.38016590
H       24.38951196      20.40054029      10.51247567      -0.04319368      -0.07068196      -0.09700998       0.71769148      -0.05009411      -0.07331607
H       25.59828253      20.03059319      11.78895996      -0.07296812       0.03962066      -0.06207212      -0.29648894       0.15984264      -0.62463462
H       25.78596499      19.26588872      10.24393757      -0.02113005       0.09159803      -0.01355893      -0.15053006       0.44253260      -0.27166095
H       24.93186696      22.85547603       9.54083689       0.03455582       0.06500716       0.06326089       0.26542962      -0.85377944       0.04742806
H       27.06608645      24.26424239       9.69258480      -0.13843165      -0.08194786       0.00560313       0.42807224       2.29240537      -0.42332259
H       28.19753155      20.47881426      11.07840078      -0.04591059       0.30795622       0.20268845      -0.48685598       0.41795826      -0.31121436
C       14.01883048      30.30194271       6.56466969      -0.30797322      -1.10366600      -0.36242125      -0.23692024       2.08585072      -0.26984069
N       14.12985717      29.20222671       7.43005240      -0.42855738      -0.79382104       0.13723324      -1.62100303      -0.82059640       0.78342211
C       15.28844410      28.68733308       7.88297236       1.13586161      -0.48164388       1.12814779       0.67448115      -0.99462271       0.07186228
C       14.98793098      27.81485027       8.91179268       0.11280609      -0.27058579       0.97499002      -0.86011493       0.69649315      -0.80740494
N       13.59434949      27.86742190       9.11775054       0.15781468       0.12266685      -0.12468555       0.59047467      -0.36679378      -0.46387526
C       13.10625791      28.63901878       8.13901690      -0.27296435       0.64261036       0.52951322      -0.92007118       0.16270024       0.49771070
H       13.26220390      30.16398303       5.79994994       0.02652575      -0.06639929      -0.09371207       0.04744938      -0.27578443      -0.22330061
H       14.99464622      30.50190882       6.14970097       0.22991302      -0.00088661       0.01467644       0.15212840      -0.00663079      -0.47024131
H       13.74454861      31.21764435       7.12220006       0.14517676       0.01792752       0.12781287       0.07927798      -0.39427286      -0.04747841
H       16.13949326      28.73784368       7.21747468       0.07319771      -0.08483150      -0.09700943       0.15042689       0.11087279       0.36467651
H       15.64519733      26.99989308       9.18268152       0.29506378      -0.02371782      -0.01392698      -0.40193966      -0.01050690       0.57909983
H       11.98891726      28.78427841       7.89525786       0.04147829       0.18747023      -0.05668005       2.18431902      -0.15545838       0.42194635
C       11.94416575      -1.59739377       7.77459388       0.67844131       0.16897462      -0.35816223       0.52501929      -0.34160233       1.50286484
N       12.97829382      -0.61344798       7.50341514      -1.02945501       0.62882671       0.70022851       0.89635789       2.01685500       0.11926240
C       13.31002059      -0.32735670       6.16830193       1.00100893       0.31352833       0.42285228      -1.02378058      -0.46181950       0.61908770
C       14.37043146       0.51032258       6.18246065      -0.60759232       0.57773849      -0.03925503       0.92934352       1.22024465      -0.18752056
N       14.68810649       0.83297281       7.50531746       0.06470122       0.14602987       0.09253674      -0.24474159      -0.31672013      -0.75908864
C       13.81998443       0.19847154       8.29037202      -0.57618139       1.89211516      -0.34287288      -0.13168883      -0.61228293      -2.44671869
H       12.28805088      -2.42936787       7.18652022       0.02000313       0.27283845      -0.18282063      -0.48538134      -0.73468262      -0.12000805
H       10.95501143      -1.27145489       7.49571100       0.10602631       0.09338632       0.18821293      -0.13094282       0.30957347      -0.37632468
H       11.88760120      -1.91674037       8.84683230       0.28553634      -0.05031450       0.18220363       0.40945691       0.47369370      -0.89173561
H       12.58770810      -0.56852276       5.38325205       0.06756324      -0.03906505       0.11609238       0.47771484       0.03481338       0.21763250
H       14.84523716       1.02850171       5.31807323       0.13611417       0.02729432      -0.00856215      -0.37745297      -0.63721764       0.93805361
H       13.79912865       0.54246550       9.29035166      -0.03338468       0.02472168      -0.03553379      -0.80342764      -0.68525833       0.92807674
C       15.63254723      -7.46436246      11.70606423      -0.01264229       0.34421028      -0.30739725      -2.37239575       0.25760716       2.12779856