640
Lattice="19.152215 0.0 0.0 0.0 19.152215 0.0 0.0 0.0 19.152215" Properties=species:S:1:pos:R:3:momenta:R:3:forces:R:3 energy=-80020.2109375 stress="-0.000984639162197709 0.0011190840741619468 0.002272761892527342 0.0011190840741619468 -0.0024795501958578825 -0.0011700130999088287 0.002272761892527342 -0.0011700130999088287 -0.00018332822946831584" pbc="T T T"
C        4.27942087      14.57619019       4.68812391      -0.33751839      -0.85837204       0.38472792       1.25080132      -0.41414705       0.85422260
C        3.10496723      15.47697844       5.00865782      -0.45749585       0.57781841       0.59986219       0.16496480      -1.54996824      -0.91334319
O        3.24327403      16.63757619       5.32361835      -0.33370890      -0.31204617       0.56903339      -0.21497539       0.63700247       0.12943459
O        1.89800946      14.87767351       4.96877765      -0.14213181       0.48166145       0.16807621       0.24688965      -0.82659256      -0.53876561
H        1.97685703      13.85940537       4.73543461      -0.16806493      -0.18110610       0.15794258      -0.10952615       1.01074779       0.37949151
H        5.22832534      15.13065301       4.72716974       0.01983187      -0.08503224       0.17656635      -0.47592568       0.08268660       0.04885240
H        4.36113734      13.95779262       3.78473899       0.20379475       0.01192794       0.13317546      -0.84727585       0.46051610      -0.22780833
H        4.34969012      13.83426043       5.50835624       0.07530453       0.11096045      -0.15689728      -0.09560369       0.23311108      -0.23553322
C       26.74381465      -6.35550412      14.44636231       0.39458984       0.57416495      -0.44894667       1.04392409      -0.68544567       0.11066662
C       25.75665098      -5.42012733      15.07510035       1.13243070      -0.77649270      -0.16569952      -1.68454325       0.17527109      -1.13297927
O       25.91694390      -4.26386965      15.48682622       0.01381122      -0.73792465      -0.78484948       1.09438825       0.06365013       0.00227074
O       24.53627341      -5.91512655      15.03329449       0.51775391       1.00193758      -0.16734850       0.93843865      -1.65519118      -0.75117797
H       29.28996103       8.73896140       9.51910021      -0.06206414       0.02100362      -0.14341692      -0.50998986      -0.85350645       0.10723418
H       26.61889141      -7.38755010      14.81928673       0.29582118       0.04374180       0.02913251      -0.27478454       0.49485186      -0.22200973
H       27.74952376      -6.07686538      14.71750751      -0.25822695      -0.04510671       0.08624480       0.25000563       0.41065365       0.00674740
H       26.74762487      -6.40822938      13.33129185       0.04014436      -0.28421996       0.18137960      -0.55991083       0.37872142       0.80676496
C       10.82963259       2.60783589      -0.67805945       0.23526105       0.03465835       0.47422400      -0.84215158      -0.84858710      -1.08621407
C       11.02047904       2.68193019      -2.17570420      -0.69431267       0.70922713       0.39456345      -0.06605357      -0.85572648       2.08371639
O       10.40446949       1.74581321      -2.86946974       0.29158784      -0.18585145       0.07089105       0.15780607       0.19201499      -0.31741810
O       11.71829777       3.55440123      -2.64560278      -0.64687950      -0.56012507       0.46893024       0.70406616       1.10871482      -1.08596921
H       10.98763696      12.62679953       0.16401653       0.10168917       0.09565478      -0.14194480      -0.46145201       0.04468122      -0.53238350
H        9.91114223       2.11433630      -0.38446641      -0.01161006       0.02292914       0.05347629      -0.57396930       0.30682498      -0.15746628
H       10.89706145       3.59115211      -0.31799888      -0.16317782      -0.10356337       0.19209151      -0.08236002       1.28475678       0.79328591
H       11.55058996       2.02465454      -0.16971108       0.09242854       0.24584379       0.22510188       1.33997405      -0.62447071       0.07587183
C       29.52371904      36.79489249      13.69576346      -0.17646479      -0.24107967      -1.02874643      -0.04243562      -2.15912104      -1.75765681
C       28.51323687      35.67231061      13.90199271      -0.68572527       0.14712021      -0.97706497      -1.58781481       1.09760475       1.97271383
O       27.38156028      36.09473400      14.62327097      -0.25782660       1.26423981      -0.00669426       1.23517764       0.42476571      -0.82462370
O       28.64454210      34.52901948      13.54504690      -0.27538270      -0.22701392       0.41745890       0.24312459      -0.51545560      -0.11231102
H       20.86236194      26.32286092      13.82017450      -0.07393402       0.06292164       0.23486483      -0.05952728       0.15847364      -0.85108614
H       30.22102317      36.93243314      14.49571148      -0.05458908      -0.27522492       0.02208846       0.22219817      -0.11438390       0.64424241
H       29.00888590      18.53647823      13.50945064       0.10421649       0.08873456      -0.30992194      -0.63119513       1.38151348      -0.12552166
H       30.09137356      17.34571035      12.77063163      -0.03131577       0.10518220      -0.06325923      -0.32921886       0.40574297       0.90811467
C       24.89824375       2.99124270      21.32196315       0.19186514       0.01609761      -0.12777399      -2.54039931      -0.01456088       0.93896711
C       26.25971693       2.66557306      21.57787247       0.41142660       0.22014484      -0.37175026       2.92575026      -0.60548425      -0.08966112
O       27.15598380       2.77415666      20.71476182      -0.52441830      -0.00301288      -0.61115895      -0.78601861       0.04508774       0.94849217
O       26.48855118       2.23837488      22.80911221       0.46954792      -0.20642438       0.01406500      -0.45445579      -0.14997268       0.68749154
H        4.30442619       2.31363652      27.54375861       0.00472008      -0.18573872      -0.35343320      -0.45754212      -0.24760848       0.31746882
H       24.51520969       3.87029137      21.92480201       0.12990836       0.02283338       0.00458718       0.47065145      -0.78560746      -1.18726802
H       24.21635098       2.14636276      21.54605440      -0.14746174       0.35177884      -0.07651639       0.42954034       0.26217285       0.19811082
H       24.90789966       3.03192845      20.26821675      -0.27035434       0.07482269       0.06265816      -0.87356734       1.02193701      -1.33483601
C       -4.57058871      -7.72703282      15.07167218      -0.01856007      -0.13650727      -0.23342997       0.23536193      -0.32265466       0.67521405
C       -4.88680139      -7.99870989      13.67593998       0.84064011       0.30077182      -0.54000002      -0.31147018      -0.77494061      -1.97378159
O       -5.52388768      -6.97507347      13.04317054      -0.05098424       0.71950357      -0.30455570       0.69142437      -1.74122453       1.13221133
O       -4.59640250      -9.05356718      13.05930547      -1.07912973       0.31715021      -0.17001979      -0.35087222       1.22413778       0.75327563
H       -5.69535084      -7.35292203      12.09581297       0.14763092       0.17737181      -0.01875798      -0.11542696       0.88444972      -0.35363805
H       -4.33106028      -8.61324244      15.68913768       0.24611638       0.20279845       0.25959703      -0.54375625       0.18128049      -0.57228082
H       -5.40741220      -7.14709341      15.46447942       0.10026695      -0.07837383      -0.03764268       0.55450112       0.26411834       0.48769742
H       -3.61528309      -7.20440270      15.03176413       0.00893602       0.12049455       0.10792674      -0.16844375       0.63004410       0.28168648
C       22.89111244      10.69076040       0.10038766       0.57296621      -1.12539697       0.36121722       1.43042994      -1.71015656      -0.69353735
C       24.31897036      10.57918639       0.73586066       0.94431331      -0.14650653       0.24272375      -2.10575914       1.10790372      -3.02493072
O       25.31532255      10.40815352      -0.12076839      -0.32322981       1.11413396      -0.73445453      -0.44756901      -0.80974758      -1.35886312
O       24.52915276      10.77154621       1.89007772      -0.22346278       0.33072940       0.11364333       0.40029424       0.13109353       3.25320125
H       14.10698123       0.68356930       0.99530504      -0.09710311      -0.11883027       0.00376759       1.38228679       0.77173454       0.19105937
H       22.79546736      11.50735564      -0.61312643      -0.09693579      -0.06946781       0.06926613       0.19245398       0.28656930       0.33704007
H       22.08310243      10.63669495       0.79364028       0.00335469      -0.12135811      -0.15556766      -0.26056048       0.39159381       0.66384900
H       22.79826148       9.78633194      -0.53592800       0.02517800       0.20701602       0.02305566      -0.02646086       0.41123542       0.26542908
C        5.18652584       6.64177641      14.85394909      -0.40807416      -0.13860715      -0.08048481      -0.84245300      -1.88401282       0.93813145
C        3.76774869       6.13298278      14.62509257      -0.19614521       0.61866633       0.17380058       2.03185940       0.20671457       0.58418179
O        2.84687320       6.95123062      14.63193377      -0.46565463      -0.80905753      -0.75224980      -0.80301017       0.00962913       0.25097522
O       22.83807595       4.84397075      14.53421030      -0.50964783       0.04613307      -0.76248459      -1.20352650      -0.78242618       0.48261473
H       -4.79237544      -1.23693832       5.99992404      -0.03070838      -0.20698127       0.16049150      -0.52808595      -0.21308160       0.03446353
H        5.17787101       7.56850801      14.29945520       0.03692248       0.19727295      -0.26878801       0.89110446       0.15473410       0.11167311
H        5.90623046       5.81090320      14.58227185      -0.02381882      -0.11959217       0.02489149      -0.57513481       1.40584517      -0.04461833
H        5.24510580       6.77600403      15.97794852       0.17261677      -0.27260858       0.08590609       0.21795520       0.31910074      -1.23371065
C      -16.60370651       4.19959604      -7.38411639       0.04424471      -0.40523898       0.28215802       1.28199768      -0.52448726       1.61748302
C      -15.10635612       3.90575907      -7.21918036       1.33996114       0.78537301       0.88346538       0.27663964       1.79751217      -0.77870381
O      -14.26235138       4.84288756      -7.32417491       0.58188932      -1.05421182       0.86457196      -1.21485317      -1.16136634      -0.11608694
O      -14.72150738      21.85220163      -7.01201338      -0.11271288       0.66064391      -0.56405160       0.40050256      -1.19304657       0.22711216
H      -15.52070760      21.03671312      -6.83728145      -0.08469116      -0.18915373      -0.00142593      -0.27933222       0.03255987       0.04930716
H      -16.74879208       5.00732589      -6.70333311       0.14851282       0.00872824       0.16080504      -0.45978722       0.95141208       0.36631522
H      -17.28198933       3.42828441      -7.06290909      -0.00605611       0.00425745      -0.23434004       0.06173290      -0.59120083      -0.13519624
H      -16.80742179       4.54234784      -8.34730222       0.15798371      -0.12491030      -0.01852063      -0.32518986       0.48560730      -1.65991974
C        1.05060378       8.34330574      -0.91972708      -0.61206421       0.02235091       0.09857697       0.90079087      -0.51077735      -0.47598556
C       19.28852910       8.08438193       0.24500072      -0.38770553      -0.22217880      -0.04043390      -0.23435630       0.13167584      -0.69632983
O       18.39464091       9.05062034       0.43977994      -0.69192515      -0.56099209      -0.05286321       0.35481232      -1.25475931       0.30893147
O        0.20403869       6.98057780       0.81871180       1.28070167       0.32524848      -0.45076361      -0.52744973       0.65813881       0.42139590
H       11.75756747       5.67090548     -10.60721407       0.19941824       0.11710630       0.20621424       0.05312517      -0.03088255      -0.51113343
H        2.09122803       7.94483122      -0.86175471      -0.23261427      -0.03487014       0.39772664      -0.94911188      -0.06856573       0.35024530
H        1.16307611       9.39067966      -1.07450239      -0.07799793       0.15695359       0.00306297      -0.08412602       0.91728342      -0.10096088
H        0.61336041       7.93556635      -1.84664970       0.06851402      -0.00985560       0.02827567       0.02701679       0.14181271       0.36070415
C       28.93302828      28.88287207      -6.18302020      -0.47341536       0.09028162       0.29482664      -0.10689893      -0.31634539       0.46586752
C       28.51217469      28.34348176      -4.84968352       0.65473727      -0.49018861       0.09414490       1.16436970       1.03343499       0.97535956
O       29.25611082      28.75755113      -3.77878872       0.07656456       0.04233094      -0.12916391       0.24288607      -0.36670852      -0.74425805
O       27.61495303      27.55742789      -4.70231680      -1.37322582      -0.85848536       0.63348634      -1.16827703      -1.07392335      -0.21139386
H       17.34761809       8.48142951       0.93491590       0.03770673      -0.19262004       0.13831581       0.55839461      -0.25688133       0.08249128
H       28.05330808      29.13445599      -6.78947979      -0.06816597      -0.24445530       0.02916974       0.45329553      -0.33724916       0.03983656
H       29.56034658      28.10778611      -6.60161440      -0.11634666      -0.09932824      -0.36142488      -0.42394453      -0.56396520      -0.67435241
H       29.63843386      29.67448311      -6.15476475       0.25357406      -0.01223267       0.06090831       0.24341476       1.21953130       0.48027068
C       -3.90294955      -4.99226850       6.41572842       1.10545235       0.58372838      -0.08122627       1.18983400       1.42239976      -1.46374917
C       -2.91605582      -6.10382458       6.46688779      -0.97736477       0.37382940       0.06323974       0.05978507       0.95004624      -0.24626100
O       -2.02457671      -6.17366758     -13.52380730      -0.55671188       0.32198272       0.27819399       0.55964911      -0.54660559      -0.03688312
O       -3.09236776      -6.94457229     -11.70247161       0.18901494       0.77945762       0.17663279       0.74073541      -0.54696840      -0.07465363
H       13.68040000       1.90923987      13.38973425       0.31592916       0.14819872       0.04265915      -0.28655741      -0.44732171       0.01068178
H       -3.60010231      -4.11317287       7.00056491      -0.04439766       0.14868200       0.25877450      -0.01213663      -0.41376966       0.31675869
H       -4.86808240      -5.31088105       6.67778819      -0.00676251       0.25107967       0.09434704      -1.39736867      -0.15467507       0.34894878
H       -3.83736905      -4.61760621       5.38109548      -0.23873780      -0.15469508      -0.18108014      -0.45562804      -0.14439999       0.25963354
C       -3.93763785      -6.09077748      10.53572908      -0.09875015       0.62097729      -0.52863809      -0.39149946       0.85725683      -1.45656490
C       -5.11894584      -6.87979905       9.88263594      -0.75512398       0.14706089      -0.37304985       0.95956337       1.37660623       1.01922369
O       -6.00220624      -7.31825680      10.65577020      -0.52993013       0.28304411      -0.23923771      -0.67473602      -0.75209075       0.13588488
O       -5.19332572      -6.98259978       8.62789744       0.91481961       0.34439918       0.16466024      -0.22615069       0.05823064      -0.58563232
H       -4.03099635      -6.75717395       7.88761485      -0.04986460       0.08544503       0.03301162       0.00110692      -0.68842983       0.69652736
H       -4.25284854      -5.11572690      10.95773964       0.11144737       0.10004588       0.12076440      -0.31925368      -0.38595986      -0.46893728
H       -3.12948211      -5.87301180       9.81374897      -0.10886930      -0.20509535       0.37229951      -0.41511387      -0.23210570       0.25742120
H       -3.54124162      -6.58310633      11.38134992      -0.13195002       0.03094934      -0.28391654       0.41299859      -0.95386881       0.79623681
C       -3.93032509       2.10144018      17.96996224      -0.66175792       0.42614996      -0.33289173       0.28059995       0.56734598      -0.15207796
C       -3.15919587       1.84555554      19.25620318      -0.27947293       1.12029674       0.45678071      -0.57465667      -0.03454967      -1.89585638
O       -3.74429092      20.62986492      20.29313013       2.24100249       0.04319230      -0.49302179      -0.31607085      -0.30737060       1.10061717
O       -1.92363485       2.07986927      19.16545607       0.73028463       0.91515493      -0.68546200       0.98293424       0.16212326       0.13313803
H       24.94037988      13.96469751      11.37718327       0.37836700       0.07548006       0.13587948      -0.12427047      -1.07336783       0.09411699
H       -4.96254980      20.93785133      17.99044830      -0.14882387      -0.18860586      -0.03398343      -0.23725522      -0.34067914       0.04545658
H       -3.39625306       1.70445500      17.09104613      -0.14681482       0.02489064      -0.01620480      -0.23667477       0.04741156       0.40878287
H       -3.95227828       3.19553380      17.84249516      -0.11415142       0.04574106      -0.14527744       0.04939575      -0.19155282      -0.10177878
C        6.32834605      13.85557600      -0.87381792      -0.44535228      -0.37826184       0.05591380       1.70358860      -1.46120858       1.00796735
C        5.49306035      14.16057505       0.28394226      -0.72701466       0.50120283      -0.70640123       0.52154100       0.30088758       2.01027203
O        4.28805384      14.33859494      19.43155655      -0.31895301       0.52954291       1.06575912       0.11858368      -0.00322908       0.22156662
O        6.22492119      14.25383380       1.47154856       0.33048907      -0.12479065      -0.89375578      -0.49725032      -0.65135944      -0.83718795
H       10.49402140       2.03333292      -3.84293380       0.30437153       0.00656121       0.06871806      -0.07970878      -0.31304973      -0.26330078
H        6.61397360      12.77356697      -0.87055006       0.18820390       0.16678316      -0.11910134      -0.64526337       0.54142809      -0.15603603
H        7.32048492      14.30192476      18.43651235      -0.22552673       0.00373157       0.05690725      -0.45250306       0.25401369      -0.47257158
H        5.82415846      14.14195618      -1.74389937      -0.05933161       0.06818960      -0.02602694      -0.41575691       0.32907310      -1.40880108
C        6.39223323      36.28026225      11.15620135       0.21830090       0.45482453       0.12758478      -0.57983291      -0.20793545      -0.28233761
C        5.81035869      34.93431795      10.77463805      -0.23674973       0.37138595      -0.08522662       0.99907976       0.33232760       1.86253607
O        6.20460848      33.99202695      11.64058470       0.33133319      -0.32322129       0.63825365      -0.27514035       0.97493529      -0.98337817
O        5.03926713      34.72660026       9.82237639       0.95505280       0.87347936      -0.41198279       0.55451143       0.56169403       0.47302970
H        4.89828373      33.38956806       9.52691134      -0.17150704       0.11753205       0.15347424      -0.50282133      -0.56068468      -1.34234691
H        7.22534614      36.46096172      10.46886129      -0.18596975      -0.17831061       0.13834562      -0.23613060       0.35747936      -0.34005642
H        6.85841807      36.28821067      12.16115120       0.06803573      -0.19717072      -0.00871160      -0.65032858      -0.14468110      -0.44410875
H        5.57584242      37.02899690      11.02545476       0.12118450      -0.01138329       0.08364008       0.93480849      -0.22215027       0.09390909
C       13.50079668       2.90485531       5.40562617       0.30170092       0.77071630       1.00648527       0.19687530       1.16286397       0.35488954
N       12.24830441       2.87595512       4.64755306      -0.11253737      -0.44794724      -1.02170163       1.10096514      -0.61704159      -0.57038355
C       12.18043532       2.43068071       3.29413793      -0.08413538      -0.51340156       0.26984217       2.84120607       0.65899432       2.64912367
C       10.89652008       2.26827567       3.08508750      -0.21935491       0.46755006       0.39041132      -3.63916492      -0.12812294      -1.40912676
N       10.11081785       2.65076768       4.15952803       0.16253449       0.45957011      -0.39854149       0.23018104      -0.70598638      -0.00566429
C       10.98340961       3.03273350       5.08531622       0.25014077       0.06681675       1.03339941      -0.34539658       0.79834425      -0.58395773
H       14.17062423       2.17527252       4.98169706      -0.42715986       0.10596956       0.24639958       0.28502038      -0.02541694      -0.57872027
H       13.42983012       2.54150142       6.44971528       0.23676468      -0.09772438       0.13758040      -0.59646773       0.62910211      -0.45122987
H       13.93409980       3.94984701       5.34760421       0.03322591      -0.19917135       0.03645249      -0.28011051      -1.21726525       0.30455396
H       13.11690146       2.29510897       2.76989723      -0.04222117      -0.30188379      -0.23584941      -0.36730942      -0.12973067      -0.21008037
H       10.37022378       2.02020272       2.17839139       0.17915517      -0.00214898       0.08478135       0.16116878      -0.20369747      -0.17244016
H       10.71396763       3.80223581       5.78680196      -0.14585937      -0.00942888      -0.03094694       0.13258748      -0.19667086       0.56149721
C       -9.06951889      13.75233662      49.49659806       0.67305979      -0.31711476       0.18949440       1.97838914      -1.71852279       0.61249083
N       -8.84860452      14.62036774      48.37619554      -1.15732667       0.26200245       1.00202705      -1.91281164       0.01832566      -0.71398556
C       -7.85605965      15.53887977      48.17247925       0.00393159      -0.11507338       0.25059512      -0.77705133      -0.18027665      -1.44472957
C       -8.12470364      16.08783300      46.90192766       0.74990098      -0.77973484      -0.72896385       1.52763772      -0.28476194       2.51421165
N       -9.27182720      15.57912867      46.42246024      -0.45479303      -0.12900842       1.52978200      -1.00008142      -0.38276619       0.14547974
C       -9.74283868      14.70799750      47.34831123      -0.77209007       0.15979418       0.62648784      -0.07099408       0.27947253      -0.82595021
H       -8.07924947      -5.58362830      49.95904998       0.08691789      -0.20856140      -0.19500095      -0.33436611      -0.02440679      -0.34857684
H       -9.43815154      -6.40969029      49.20582029       0.09691004       0.02252348       0.07630283      -0.00567564       0.93729639      -0.13175079
H       -9.62413971      14.17383613      50.29839013      -0.14647576       0.17116901       0.04143851      -0.91464126       0.45218429       0.12985452
H       -7.13448338      15.70476579      48.94006402      -0.05564787      -0.15315194      -0.27869906       0.42767021       0.24615678       0.07783186
H       -7.44474434      16.79855468      46.46962074      -0.08059744      -0.11021845      -0.00592317      -0.30532190       0.10152070      -0.68159419
H      -10.74760840      14.19767142      47.25934658      -0.35730218       0.10794261      -0.10281616       1.51002002       0.48941329       0.34263515
C       20.40113552      18.42068675      10.01302124       0.16674089      -0.26232065      -0.56534260      -0.45323691      -1.06542492       0.84958887
N       21.57931567      19.02228406       9.45085222       0.61222995      -0.27832044       0.24312287       0.79478502       2.00648165      -0.81621981
C       22.72708486      18.37172991       9.04633941       0.71479099       0.08525404       0.34568006      -0.32768968      -0.98209071       0.06630544
C       23.60160002      19.30852484       8.55192125       0.18218243      -0.23542796       0.57639838       1.10025811      -0.41653627      -0.51034963
N       22.97680248      20.53270157       8.67431796      -0.33579974       0.36790755       0.47710600      -0.69650209      -0.15799290       0.39866003
C       21.73314907      20.35194492       9.22226709       0.55152997       0.40826912      -0.12925965       1.60967326      -0.79483819      -0.65946805
H       20.12869411      17.48463210       9.41591456      -0.07244527      -0.11682444       0.09660286       0.00574732       1.32163751       0.85360754
H       19.61679980      19.19628558      10.13955816       0.03871167       0.08230490       0.00095371       0.36032063      -0.58704185      -0.66505384
H       20.65680342      18.15450734      11.06257039      -0.03828421       0.08445575       0.03869584      -0.20418465      -0.19961017      -0.59878385
H       22.71454498      17.27248104       9.13867981       0.13928343       0.10479899      -0.03928333       0.44887280       0.84250045      -0.22619776
H       24.64396160      19.18447832       8.07321317       0.14985319      -0.03693911       0.12952621      -1.98849344       0.25704306       1.01915646
H       20.98019386      21.11713067       9.33499990      -0.00840898       0.01783592      -0.19519670       0.11465135      -0.10448570       0.14128381
C       15.23724487      27.90596826      10.28732185      -0.06645800       0.72527318      -0.29113187      -0.62754369       0.82645422      -1.00804663
N       14.11241339      26.98118746      10.36762677      -0.45207574      -0.34719524       0.12032971       1.33727062       1.05034363      -0.33543518
C       13.05833577      27.11898003      11.22189884       0.11918948       0.24380983      -0.23057787      -0.70874387      -0.17141907      -1.06906939
C       12.21819560      26.11615622      10.82435227       0.40386439      -1.32231737       0.63217596      -0.74223125      -0.66099215       1.04695141
N       12.71214781      25.38584748       9.78649909      -0.75433675      -0.32063952      -0.29483762      -0.11044028       0.52913427      -0.08815010
C       13.86441801      25.99193825       9.51471696      -0.30907195       0.00049560       0.06366558       1.14632177      -1.26159644      -1.95799351
H       15.23938370      28.47589697      11.21120891      -0.23042988      -0.10216389       0.00896436       0.18894076       0.07103869      -0.02499437
H       15.12115909      28.62368602       9.40292274       0.07186242       0.19370919       0.17479371       0.17302930      -0.99532342       1.12234020
H       16.12955730      27.31339045      10.18895775      -0.09070419      -0.00845962       0.04700070       0.48632255      -0.00697537      -0.09744374
H       12.83565470      28.09659241      11.60048347      -0.02548580       0.00946683       0.17747995       0.04822143       0.10474217       0.51058084
H       11.31374002      25.81890434      11.29214319       0.18881026       0.16028462       0.10258519      -0.56130624      -0.06161596       0.28109580
H       14.48670491      25.74084121       8.60906027       0.02568862      -0.04525585       0.19477503      -0.64363921       0.52108485       1.35788894
C       13.81855038       1.53590319       9.88628497      -0.63896046      -0.12134670       0.33726321      -0.18939468       0.30101871       2.33267641
N       14.94711312       2.28705245       9.40764300      -0.58770970       0.78890980       0.03102620       1.71756291      -1.33499312       0.53734565
C       14.94426459       3.54340788       8.92995775      -0.58046606      -0.17361217       0.89502884       0.07352214       1.17721105      -0.47510740
C       16.24808808       3.90341042       8.71630789      -0.54488279      -0.34036849      -0.38248262       1.27414942       1.48799074       0.20160158
N       17.08299722       2.88563220       9.15561896      -0.75096992       0.51582436      -0.07987636      -0.47896153       0.70801944      -0.76145387
C       16.27912682       1.94110252       9.55425067       0.10719944      -0.33877360      -0.20952664      -1.68188620       0.06133542      -0.11483106
H       13.02549578       2.24732951      10.16121015       0.04146962       0.05278592      -0.16719839       0.24323475      -0.27298114      -0.07422401
H       14.06031497       0.92617633      10.79114356      -0.17152104       0.00283884      -0.16951525       0.23095855       0.90422767      -0.43213356
H       13.43275111       0.80369441       9.24733004       0.10721732       0.21340927       0.03261063      -0.38655174      -0.68876129      -1.62362075
H       14.06173327       4.13527596       9.00252343      -0.03159133      -0.14060893      -0.13861330      -0.40854663       0.30993527      -0.23692846
H       16.72189579       4.88049795       8.42668862       0.07449771      -0.20975444      -0.15071682      -0.99419767      -1.37308896       0.21342832
H       16.55093014       1.02679791       9.96363148      -0.01904203      -0.13220082       0.00549493       0.48324788      -1.52121615       0.61155814
C       19.16187006      -7.36876256       9.34447466       0.69578981       0.41915235       0.46434595      -0.61289603       0.24508815      -0.66618806