640
Lattice="19.152215 0.0 0.0 0.0 19.152215 0.0 0.0 0.0 19.152215" Properties=species:S:1:pos:R:3:momenta:R:3:forces:R:3 energy=-80020.4375 stress="0.0014076195657253265 -0.0002420590171823278 -0.000522456772159785 -0.0002420590171823278 -6.573010614374653e-05 0.000736805668566376 -0.000522456772159785 0.000736805668566376 0.004452119581401348" pbc="T T T"
C        0.68749950      11.57540862       4.65095437      -0.07162886      -0.22528053       0.54781110       0.66631484       0.31209823       1.05029392
C       -0.11779558      11.24580963       3.45721867       0.80021876      -1.19466596       0.27107748      -0.84718305      -0.14266554      -0.93020189
O       -1.34418543      11.37834967       3.32272863       0.65953703      -0.11996153      -0.64823142       1.02690864      -0.11684228       0.75370091
O        0.56954293      10.78855982       2.42484843       0.19805395       0.24059322      -0.49405078       0.00266159      -0.66072983      -0.71249288
H        1.58897894      10.94218811       2.39687153      -0.09501594      -0.06182329      -0.20330592       0.08362687       0.43191993       0.22579147
H        0.07879889      12.20589418       5.27993533       0.19333850       0.19898591       0.00637000      -0.10508066       0.22419840       0.41071808
H        1.61518204      12.13043627       4.40683663      -0.00092162       0.24133087      -0.10669181      -0.48941424      -0.35251707      -0.03322466
H        1.01519853      10.70120301       5.25690801      -0.05830016       0.15246820      -0.18642484      -0.36173952       0.29291818      -0.48287702
C       23.99177052       1.18986037      16.89210423       0.28025530       0.39664257       0.18536068      -0.16568440      -1.53472936      -0.87411457
C       24.72599812      -0.10366102      17.27030386      -0.11018923      -0.30363092      -1.46645194       0.26441157       0.93604016       0.68219090
O       25.93934358      -0.24230924      17.02994340      -0.47625789      -0.22433943       0.54336489       0.31172657       0.04366523      -0.63770217
O       24.03742561      -0.97606744      17.93228984       0.65666617      -0.46970684      -0.15317354      -0.40387398       0.79997671       0.05845028
H       25.79558208       9.45260074      10.52971448       0.15591092       0.28216879      -0.08607790       0.33268833      -0.42842141       0.39114624
H       23.63751516       1.06344667      15.83754661       0.08042594      -0.04338409      -0.18765817      -0.07230026       0.06495951       0.87045610
H       24.52433629       2.12936169      16.90392872       0.07397666       0.18888425       0.29328945       0.65112805      -0.11478204       0.32401437
H       23.17244649       1.15503754      17.57874439       0.01402553       0.11707343       0.31617961      -0.85996723       0.62828189      -0.05489334
C       11.53782868       4.86869032      -5.77837387      -0.39550346       0.26056854       0.07135593      -0.32741904      -0.58558524      -1.14259696
C       11.34951323       3.41422346      -5.56532020      -0.05502268      -0.51480471      -0.21595253      -0.24132872      -0.00447306       2.82152629
O       12.10920896       2.68004950      -6.34639032       0.41945972      -0.13892315       0.61721152       0.38347453      -0.32940024      -0.78394598
O       10.68829776       2.97573174      -4.60628719      -0.28067386       0.31041874       0.19809002       0.27377328       0.00514215      -1.40797281
H       10.25663983      13.20374497       0.45151613       0.03443374       0.05858254       0.03213652      -0.25656757      -0.29319751       0.20841405
H       10.54171278       5.26326883      -6.00311225      -0.08138795      -0.08639952      -0.23810353       0.21317650       0.55392373       0.54148632
H       12.12336054       4.96325194      -6.70379935      -0.12069973       0.10047418       0.08534907      -0.10476613       0.39985454       0.55109608
H       11.96889995       5.26421412      -4.85351949      -0.09164676       0.07785638       0.03161037      -0.19786799       0.41111112      -0.40196005
C       28.47446632      37.60473658      15.26155114      -0.49594256       0.66799403      -0.15515706       0.07822757      -0.84029442       0.41655731
C       27.54570646      36.61431216      14.54080601       0.45540480      -0.23240993       0.27073103       1.96537101      -0.62189543      -0.03139055
O       26.31601080      36.49752434      15.07419196       0.00024483       0.21952527       1.68449262       0.25429440      -1.10605717      -2.07328081
O       27.99486612      35.90144030      13.60875322       0.34091760       0.16432821       0.19860427      -1.76544905       1.18014860       1.68316853
H       16.97976497      27.10448642      13.77835517       0.18356736      -0.04339946       0.13714066       0.42313090      -0.21818107       0.48715222
H       29.07220295      38.05463803      14.46702564       0.11241835      -0.14820590       0.31194868       0.49486327      -0.18324432       0.31598696
H       29.10046253      17.86020546      16.05205148       0.04111623       0.15969626       0.25759453      -0.89708591       1.15620387      -1.55468750
H       27.93069620      19.26419059      15.76480082       0.07635362      -0.35563254      -0.01908172       0.02560640      -0.55856335      -0.08001305
C       27.39666850       6.38112266      25.71002893       0.26703244      -0.41875029      -0.13748893       2.55605173      -0.61354798       0.71162832
C       28.85474130       6.27248300      25.30529191       1.37700663      -0.03043770      -0.08192721      -0.08946371      -1.15038395      -0.45782462
O       29.70652097       7.07815648      25.62982879      -0.37299153       0.13704213       0.98982010       0.32673776       1.24688363       0.29255214
O       29.22838180       5.14437541      24.67264642       0.21120333      -0.84721781      -0.89415519      -2.47276425       0.53173494      -0.00776829
H       16.36249506       4.85922197      29.36094013       0.18889366       0.05596421       0.09131884       0.20188066      -0.36004472       0.01138889
H       27.47614711       5.72329254      26.59983069      -0.05201774       0.14334750       0.00443917      -0.95612329       0.33567733      -0.13229571
H       26.72336534       5.98282344      24.98881672      -0.06773169       0.00633186      -0.25373677      -0.58543336      -0.10961781      -0.48743153
H       27.28874435       7.41078802      26.00795353       0.00199489       0.06947947       0.12563996      -0.63473779       0.17666042       0.08443114
C       -5.62428983      -4.05351068      15.45410523       0.48122489      -0.15693707      -0.11266796      -0.85298443       0.53525800      -1.23959577
C       -6.24018046      -4.93485113      14.38269554      -0.08938307      -0.06434136      -0.91476584      -0.28639126      -2.20970511       0.51182193
O       -6.85548294      -4.26413194      13.44372449       0.50462179       0.27686533      -0.36172622      -0.71766061       0.43932569      -0.70341086
O       -6.21222070      -6.19387934      14.34205291      -0.29528999      -0.43715273      -0.18996930       0.40791690       1.83356631       0.69957238
H       -7.34654583      -4.93244044      12.80805617      -0.05949824      -0.02528136      -0.03468814       0.44089276       0.00544214       0.24424815
H       -6.36048891      -3.19521925      15.58318534       0.02803035       0.24190875       0.07723405       1.00506449      -1.14205158       0.44108865
H       -4.77677900      -3.61099978      14.91869419       0.02628065      -0.33782380       0.18210976       0.22092605       0.13739556       0.34027752
H       -5.28311240      -4.59813645      16.34643112       0.06708062      -0.08055353       0.11711947      -0.36837494       0.32645392      -0.34089553
C       21.81901589      10.35805431      -0.04403649       0.24941387       0.36819670       0.59132548      -0.56225520      -0.76882672       1.01241207
C       22.63468627      11.08077049       1.03912828       0.45184965       1.19442426       0.32279517      -0.92328590      -1.15068841      -0.77048910
O       23.84081201      11.17114502       0.75139342      -0.43873641       1.80319902      -0.65795737       1.39475226       0.45097575      -0.19411555
O       22.10163374      11.43777489       2.13185942       1.81233743       0.27504725       0.19575481      -0.18091194       0.29941863       0.19422019
H       13.41151447       0.96910144       2.17348973       0.01402316       0.18076074       0.05457588       0.04372489       0.77727717       0.10356925
H       21.99501758      10.76756295      -1.01148216      -0.14586747       0.26829778       0.04130283       0.08092979       0.65855783      -0.75379616
H       20.74332193      10.33053593       0.17779259       0.03784254       0.08182119      -0.07924856       0.45752910      -0.06651761      -0.09015644
H       22.21428388       9.32672475      -0.13688954      -0.14549250      -0.00621673       0.19206398      -0.28115928       0.25137421       0.26678357
C       -0.53485513      10.23756929      12.30026767      -0.52567756       1.36824541      -0.27409686      -0.97990096      -1.44312644       1.22483397
C       -1.56877847       9.94233432      13.45983221       1.61038527      -0.37783377      -1.62022173      -0.37515962       0.18205547      -0.22878525
O       -2.61071567      10.71046621      13.57335281      -0.42863820       0.71848324       0.91014391       2.21685481      -1.78091192       0.02566832
O       17.86418728       8.93240149      14.25077758      -0.67329462       0.46414441       0.02041666      -0.25459060       2.43302393      -1.36666334
H       -3.90364014      -2.91326383       6.26073854      -0.08115322      -0.01532455       0.09482405       0.51233339      -0.72866714      -0.89070302
H       -0.33980601       9.41820240      11.56941607       0.45094660       0.02631461       0.17267391      -0.74504173       0.35813430       0.63737619
H        0.39092644      10.34057800      12.82316761      -0.00247558       0.06886240       0.02506541       0.87019205       0.47699708       0.16351962
H       -0.83505776      11.13526625      11.81346559      -0.06424121      -0.08596133       0.11745267       0.16379279       0.59549361      -0.58861959
C      -19.62674472       1.17847852      -6.78900898       0.75835913       0.13984030       1.17836096      -0.66703171      -0.37007117      -0.83117545
C      -18.93772904       2.01443431      -5.80748103       0.33293620      -0.54715597       0.03982058       1.66786885       1.06522489      -0.62900937
O      -17.93249839       2.67468171      -6.19451903       0.16599003      -0.25473942      -0.81641245       0.07948470       0.04386014      -0.27268019
O      -19.40326850      21.22159672      -4.65058021       0.21139325      -0.25747260      -0.29010582      -1.21611154      -0.32646662       2.34943986
H      -18.58735551      21.63265278      -3.56182434      -0.27569720      -0.07795798       0.16176711       0.57552809       0.73632914      -0.53898758
H      -19.59961860       1.72843371      -7.72080012      -0.12192320      -0.19670143      -0.35251086      -0.14710110      -0.32154602      -0.38915956
H      -20.64077086       1.01319584      -6.46154751      -0.08562408      -0.11267918       0.15807788      -0.36550164       0.00256990      -0.09183186
H      -19.18428689       0.19790611      -6.93855628      -0.11186682      -0.04009511       0.03920340       0.28380656      -0.02054685      -0.04220115
C       -3.05746539       8.31709973       3.37994468      -0.16817150      -0.30778040      -0.45464036      -0.14879566      -0.39235386       0.26695868
C       15.31748693       7.66003811       2.25815842       0.39832373      -0.49831415      -0.00329062       0.31635544      -0.64833778       0.12243998
O       14.77260917       6.44018494       2.45471349       0.09736391       0.08698823       0.05862928       0.41036034       0.19534479       1.89793348
O       -3.90368323       8.15492660       1.15489312       0.05647880      -0.47339802      -0.27097362      -0.09831065       0.92054117      -1.06018698
H       13.30720694       7.97335098      -9.78680046       0.27121489       0.04586861       0.01730788      -0.37664351      -0.37365505       0.36879939
H       -2.43674056       9.12849125       2.99439047      -0.37990367      -0.11790846      -0.10173159      -0.69908935       0.25813740       0.00012561
H       -2.32582967       7.66004161       3.82661644      -0.37550087      -0.08261322       0.06696990       0.02404594      -0.79128742       0.05095733
H       -3.69194054       8.61317982       4.23709056       0.09391540      -0.01737226      -0.28593302       0.05981645       0.09002548      -0.64690751
C       28.40373616      21.08745608      -1.56768475       0.56774098       0.53715029      -0.24157040      -2.16027498      -0.49096256      -3.01239586
C       27.80348562      22.42152994      -1.26187300      -0.13551438       0.63021271      -0.23562702       0.34453559      -1.12460876      -0.44620416
O       28.67863174      23.02754177      -0.49117554      -0.44160427       1.05939055       0.42327799      -1.74992645       2.42705441      -0.01906813
O       26.70985107      22.85334051      -1.68820085      -0.48134378      -0.00246826       0.60811255       1.01306581       0.05277497       0.62680817
H       14.02965334       6.23404349       1.83840414       0.03384391       0.07236106      -0.05776693       0.20933503      -0.07193014      -0.85348654
H       28.92841659      21.12649569      -2.55258866      -0.02891117       0.03878827       0.09702160       0.05771462       0.34998578       0.79809237
H       27.60579426      20.37327975      -1.81034068       0.11643984      -0.03855934       0.03082176       0.06514820       0.16465795       0.42710507
H       29.00436778      20.70284981      -0.81334424      -0.10034848      -0.24262831       0.07365910       1.24525952      -0.51241124       1.27041197
C       -5.35054270      -6.66708388       9.47002816      -0.05962289      -0.50213572       0.18708968      -1.87555385       1.35938692       0.86071497
C       -6.04399294      -6.41916557       8.11717410      -0.53559882      -1.18162096      -0.53918809       2.08617187       0.22276223       0.11988801
O       -5.36066668      -6.18170608     -12.01898922       1.07471548       0.09053063       2.24483416       1.14393079       0.04503459      -0.77861273
O       -7.33399592      -6.43159727     -11.24635838       0.48325909       0.06094008      -1.27027588      -1.62882113      -0.21086368       1.57021070
H       12.07256925      -1.39662786      12.22890608      -0.22949113       0.01871121      -0.27678512       0.81349325      -0.04894358       0.25308573
H       -5.29120170      -5.71885144      10.09917907      -0.17070638      -0.12972426      -0.17577234      -0.17488372      -0.90137386      -1.14880753
H       -4.35608044      -7.06005519       9.37249806      -0.16069845       0.23054502       0.07618994       0.15058905       0.02240535      -0.35625899
H       -5.96799171      -7.30972208      10.09724245       0.06752496      -0.01530163       0.31469106      -0.00366665      -0.21201026      -0.05086866
C       -9.32174726      -4.69469818      10.57641841      -0.76891184      -0.27628400       0.17563005      -0.44721892      -0.03885269       2.09787893
C       -8.58901700      -6.04359764      10.89597597      -0.68434832       0.88623446      -0.07291683      -1.28773642       2.19913960      -1.76801229
O       -7.82241632      -6.09103780      11.87299537       0.16317592      -0.46769752       0.29231182       0.53202665      -0.25835699       0.98079777
O       -8.78863141      -6.94561230      10.02225109       1.39457665       0.40443813      -1.00267585       0.76362497      -0.47026241      -0.02959096
H       -7.86371201      -6.55320944       8.78212366      -0.11737060      -0.00352814       0.04631308      -0.09119594      -0.28121948      -0.18553668
H      -10.43591446      -4.86302489      10.49257814       0.11662081       0.11215528      -0.15044564       1.20587873       0.13284510       0.10074168
H       -8.97408495      -4.16540071       9.70082508      -0.01884315      -0.14707247       0.06349125       0.23462814      -0.26947239      -0.54873741
H       -9.09922884      -4.00776441      11.43885506      -0.05951168      -0.02268646      -0.12939174      -0.54742199      -0.49681732      -0.68247867
C       -3.12518351      -0.68536120      22.49996870      -0.60123619       0.13078489       0.26524839      -0.21849623      -0.19458924      -1.45395422
C       -3.33008735      -0.23490587      21.01209742      -0.66842444       0.52881910      -0.34738109       3.06271100      -1.40145016       2.04191732
O       -4.39362956      19.20481809      20.57070914       0.15429417       0.58905849       0.65927397      -3.36669421       0.74489033      -0.89383882
O       -2.27019429      -0.24018008      20.20497534      -0.07978002       0.14669539      -0.14126350       0.84216261       0.28915513       0.27005696
H       16.60450983      11.94531524      12.83626402      -0.13439255      -0.23243498      -0.34030591      -0.47729847       0.13783491       0.17015636
H       -2.43647052      17.62929949      22.64362536       0.22602323       0.17737588       0.07499224      -0.12621006       0.10065103      -0.32344657
H       -4.09046158      -0.95822401      22.89626980       0.22967019      -0.01138829       0.24226894      -0.31770387      -0.16245395       0.05760451
H       -2.75947043       0.10553116      23.11448065       0.12004292      -0.14542155      -0.11157514       0.33170754       0.83958173       0.25842488
C        6.02499558      13.50246599       2.60451527       0.15223882       0.06073046       0.02835542       0.09681749      -1.32326770      -2.98683119
C        7.14743980      12.61774486       2.94458093      -0.50872738       0.32432579      -0.21660752      -0.61449707      -0.94454801       1.95980525
O        7.29780598      12.28738920      23.30068676      -0.05848044      -0.79708558      -0.54940860       0.49233952       0.02445388      -1.60341978
O        7.88301940      12.15374582       1.95844717      -0.39268815       0.70896078       0.24913559       0.37670326       0.64280331      -0.49051774
H       11.76799760       1.77227879      -6.41989801       0.26419929       0.02057772       0.08450438      -0.13597274      -0.51286584       0.09917802
H        6.34475175      14.48054122       2.76479362       0.10056925      -0.08074760      -0.14302254      -0.10174796       1.94290853       0.67074740
H        5.16595796      13.16363608      22.29062401       0.14328113       0.17813791       0.24653885      -0.62341869       0.28055781       0.41912296
H        5.86238496      13.39738442       1.48114499      -0.21528687      -0.02635890      -0.01647044      -0.13031594       0.14294811       1.49054027
C        2.59998088      31.62394253       9.01986141       0.54160819      -0.68150750      -0.31111529       0.87293631      -2.44033957       1.07753205
C        1.14524040      31.39438600       9.35685404      -0.44458324      -0.62135405       1.22843991      -0.32550943       1.24358094      -0.10921863
O        0.58286042      32.20095174      10.14787193       0.15893523      -0.67229222      -0.16872882       0.24757338      -1.17960322      -0.61728138
O        0.51221706      30.43109182       8.74702461      -0.99641077      -1.16833096      -0.28602583      -0.01149714      -0.13993432       0.22796839
H        1.22989955      29.63476526       8.17660790      -0.12818618       0.04741924      -0.03158329       0.32462209      -0.07797636       0.30519333
H        2.91626526      31.17859839       8.06132423       0.14249028       0.01017305      -0.01725165      -0.34221655       0.74084002       0.16625363
H        3.21242562      30.98811287       9.75973193       0.04312946       0.10172471      -0.21016931      -0.77951658       1.00223398      -0.72550833
H        2.86559407      32.64130256       9.21645572       0.04127121      -0.06983800       0.13019768       0.23058420       0.54367876      -0.23691344
C       15.87124077       3.74866028       4.90960199       0.29096236      -0.04214162      -0.20711738       0.66146684       0.53983128       0.37297210
N       14.71647271       4.51943433       5.45459733      -0.50103887      -0.06894886       0.75539545       2.22466326      -1.21061051      -1.30568016
C       14.61130842       5.31084382       6.57351869      -0.30746302       0.33644289       0.03921443       1.13404095      -0.27330297      -0.16089299
C       13.28574622       5.56909538       6.66183052      -0.99276851      -0.58882582       1.30013055      -0.94998944       1.26451039       1.74376500
N       12.61118494       4.95865375       5.67698052       1.01210968      -0.62285430      -0.43122324      -0.67716920      -0.15207693      -1.16760349
C       13.50644293       4.36002474       4.90566462      -0.45120116       0.39566065       0.26873856      -0.65638280       0.57687861       0.72564071
H       16.88043052       4.06746483       5.30056977       0.24681443       0.12648954       0.18203747      -1.27926719      -0.14523706      -0.18168949
H       15.90821486       3.86258467       3.82037197       0.09115211       0.00565885       0.05178071      -0.22380060       0.17825350       0.27962404
H       15.72853931       2.68157518       5.09922502      -0.11431806       0.03854058       0.06837040      -0.04936144       0.15301591       0.18499602
H       15.48216741       5.58166672       7.16570963       0.08952359      -0.06323203       0.06775332      -0.33106482      -0.05079106      -0.26547512
H       12.74556647       6.20818894       7.37437188       0.24639017       0.05481963      -0.23894261       0.38395786      -0.36143827      -0.45972827
H       13.30198256       4.00999509       3.91476970       0.19670009      -0.11019399      -0.09020953       0.25506139      -0.25346476      -0.23384464
C      -12.78736368      14.45827546      46.72146185       0.30216435       0.80820713      -0.87401937      -1.68168831      -0.01810096       0.99414730
N      -12.11537503      15.21825851      45.73013150      -0.40986021      -0.13130340      -0.93005675       0.27644795       2.16269517       3.62620783
C      -12.00938013      14.97224343      44.44881568       0.62628393       0.75313423       0.01614289       1.22392869       0.41831189      -3.05066991
C      -11.35028366      16.08733547      43.94143574      -0.34878018      -0.26761871       0.76183144      -0.01825923      -0.76228154      -0.37021393
N      -11.05112278      16.98839628      44.90910963      -0.17585319      -0.20763081      -0.62829890      -0.75697815      -0.76725560       0.93572652
C      -11.57500083      16.46585489      46.02350413      -0.50076951       0.47850166      -0.03758780      -0.04125631      -0.75804293      -0.38006192
H      -12.82255854      -5.70731363      46.41579078       0.01662067      -0.06751858      -0.05177789      -0.01610873      -1.11861122      -0.20302193
H      -13.82817858      -4.34544429      46.83333105      -0.03949611      -0.10101158      -0.27776690       0.29380602      -0.08973783      -0.16143428
H      -12.37104299      14.51750887      47.72832094      -0.05417180      -0.18156126       0.13815068       0.44247973       0.14346495      -0.31521890
H      -12.21110683      14.04817118      43.90214140      -0.08738262      -0.01549240       0.15980692      -0.20417953       0.25262088       0.60045129
H      -11.06014984      16.21980608      42.93470755      -0.13875706      -0.08623235       0.00139784       0.27782142       0.24070133      -0.76858932
H      -11.60737811      16.93254392      47.01778004      -0.05985672      -0.21814021      -0.16298988      -0.04542476      -0.49939656      -0.69996876
C       30.82122802      22.33535320       9.58167464       0.57134370      -1.07846691       0.23562831       0.63578475      -2.29025722      -0.79314601
N       32.26893796      22.38161543       9.79626837      -0.58638120       0.69989888       0.42370013       0.15311053       3.26283884      -0.64754486
C       33.09295235      21.34601130      10.04415164       0.01515760      -0.49493790       0.72883392      -0.87048250      -0.47416764       0.77240181
C       34.32134998      21.86544042      10.28400491      -0.16564186       0.41134872       1.77936370       0.94456565      -0.84535044      -0.04967993
N       34.30747320      23.20677069      10.06836900       0.59259145       1.79309689       0.33986673      -0.66079956       0.58318847       0.00043694
C       33.04541956      23.54120392       9.78476731      -0.11899276       0.14555205       0.49956945      -0.38450444      -1.56130338       0.15651837
H       30.41310377      23.28868214       9.39212052       0.13577190      -0.14754189      -0.10835539      -0.06863631       1.32756197      -0.20872773
H       30.34204756      21.95903790      10.51610159       0.20522264       0.01118881       0.08069717       0.21694329      -0.27666762      -1.09402227
H       30.70792866      21.70003165       8.61971106      -0.01550342       0.17253532      -0.03303964      -0.44678301       0.67912602       1.87711716
H       32.60534217      20.42930174      10.28321275       0.19479326       0.14043708       0.02828286       0.25263992      -0.68110579       0.00707488
H       35.18024184      21.31828696      10.65049782      -0.05570170      -0.05385308      -0.24889570      -0.01028647       0.29814535      -0.10204228
H       32.67161507      24.53393012       9.56944458      -0.06175102       0.13562470       0.08451107      -0.10008563      -0.24962723       0.13183753
C       16.50454999      30.32244367       7.04939975       0.33431334       0.45581031       0.16125358      -0.45017707       1.74506736      -3.43197083
N       15.76103390      29.48069080       7.90233726       0.77006589      -0.97516354      -1.18706516      -0.78095078      -1.31449127       0.05187646
C       16.18224379      29.29451558       9.18184189       0.11632760      -0.09618277       0.47668712       1.14927351      -0.20543021       0.31816208
C       15.32679698      28.37723295       9.73260136       0.39755866      -0.32016096       0.45742079      -1.64381838       0.10293895       1.36461306
N       14.33161959      28.04764560       8.80300165      -0.91331826      -0.41761394       0.42242306       1.24675083       0.01243292      -0.20957588
C       14.67281935      28.65385791       7.67114628      -0.72763269      -0.54287545      -0.51281328       1.25244737       1.19552386       1.16497374
H       16.56479584      29.91543542       5.98064485      -0.09766910      -0.15011776       0.02317659      -0.10632350       0.27790862       1.44637084
H       17.51870425      30.44062376       7.40798617       0.08901817       0.21633678       0.20752985       0.08286685      -0.03299349       0.20141336
H       16.00776959      31.34591210       6.92906893       0.34724190       0.29176683       0.02229597       0.55642545      -1.44076395       0.33082315
H       17.15209335      29.79342187       9.43772015      -0.20912821      -0.11456273       0.11043334      -1.18029475      -0.74185848       0.31364256
H       15.07906103      28.11032814      10.78439338       0.30188042       0.22697653       0.09199630       0.84697461       0.30484688      -0.83399820
H       14.35219834      28.46537815       6.68453759       0.09225122      -0.20588164      -0.00864927      -0.56951475      -0.24605942      -0.73859584
C       10.01786203      -5.63399169       3.78376334       0.84839763       0.07694202       0.25052249      -1.01079321       0.14710370       0.60856867
N       10.87047763      -4.54386471       4.24503259      -0.02436918      -0.24872874       0.24153859       1.40588415       0.87735426       1.28184938
C       10.90956636      -3.29121992       3.70417885       0.75896570       0.22037786       0.79960082       0.57670218       1.84974611      -0.43570489
C       11.71401335      -2.47456889       4.52398574       0.10528715       0.49396401       0.27404696      -1.51986015      -0.22271527      -0.14329201
N       12.12914699      -3.25622426       5.57146604       0.12901471       1.01178787      -0.58543390      -0.38479668      -1.68590224      -0.21385908
C       11.65606265      -4.48812569       5.36727305      -0.69298364       1.17022746       0.16184174       0.07333550      -2.78964496       0.39534593
H        9.69617207      -5.38015183       2.74972728       0.00351602      -0.04242302      -0.07339231       0.30862895      -0.42241293       0.79993457
H        9.13008624      -5.68742361       4.48143321       0.41028544      -0.10200640       0.08755162       0.79255438       0.04704607      -0.96837890
H       10.52482385      -6.60355038       3.84197783      -0.23267587      -0.08315687       0.16079347       0.17298234       0.34262082      -0.28000683
H       10.36824512      -3.03715258       2.77537806       0.03008283       0.00306322       0.15693980       0.47887498      -0.27564657       0.73212314
H       11.70957290      -1.40043415       4.67856460      -0.17284835       0.13488971       0.17698596       0.11776993      -0.05519740      -0.56933570
H       12.01132307      -5.45053673       5.88795955      -0.14797563       0.14291604      -0.06730903      -0.54829448       1.76080990      -0.65327847
C       17.64189938      -3.12663458      11.01799107      -0.68112542       0.35294151       0.60052353      -0.47313651      -0.72034538      -0.22998843
N       16.87503546      -4.32544684      11.48251827       1.20486029      -0.62190323      -0.84573711       1.66783023       0.87178987       0.16316554