640
Lattice="19.152215 0.0 0.0 0.0 19.152215 0.0 0.0 0.0 19.152215" Properties=species:S:1:pos:R:3:momenta:R:3:forces:R:3 energy=-80021.0390625 stress="-0.0010883216746151447 -0.00014371743600349873 0.0008785424288362265 -0.00014371743600349873 -0.0005314832087606192 0.001049117068760097 0.0008785424288362265 0.001049117068760097 -0.00024189123359974474" pbc="T T T"
C        1.80022814       9.01016931       0.66720559       0.35112415       0.36912544      -0.06749234       1.96327281       0.57944286       1.51344991
C        2.66063848      10.17342527       0.16809267      -0.01061555       1.01132753      -0.15610170       0.31362414       0.18107331       1.38014650
O        2.70074949      11.23128581       0.81605768      -0.04274472       0.36871213       0.13208662      -0.25837618       0.14037466      -0.12508696
O        3.46381125      10.02415990      -0.85718316      -0.55131646       0.79420148      -1.44165208      -0.42858398      -0.89865029      -1.38668156
H        3.21283132       9.15660422      -1.52575199      -0.24863868      -0.10852814      -0.11223033       0.32113773       0.07133001       0.98474836
H        2.04554142       8.17893789       0.05403511      -0.20915213       0.09325706       0.02351955      -0.50312531      -0.95490575      -0.48165911
H        0.78494048       9.33468811       0.69133684       0.04713642      -0.07806247      -0.07071647      -0.78458369      -0.07046421      -0.17964607
H        2.10615687       8.75047572       1.75341742       0.22002951      -0.05818659       0.04602934      -0.41741964       0.51625884      -1.66098976
C       23.00512642       0.62867370      15.57978614      -0.33460006      -0.25450942       0.28785376      -1.02329969       0.10148915      -0.77243435
C       23.05551860      -0.87061601      15.43741950       0.08702362      -0.68859064       0.35014198      -0.71018291       2.15430903       0.06875939
O       24.15015390      -1.35886700      14.99007185      -0.22016200       0.86550898       0.34391728      -0.49785841      -1.44489479      -0.02665144
O       21.97923783      -1.45812062      15.75118981      -0.86599935       0.45079253       0.42286658       0.73266268      -0.01066254      -0.31365341
H       26.59265363       8.39699548       7.33635855       0.05029600      -0.30965385      -0.01462706      -0.58046132      -0.33232316       0.17660782
H       22.12100728       1.00771303      15.03189670      -0.26985557       0.20464968       0.10996868       0.11930910      -0.40511036       0.31538203
H       23.80870721       1.09345606      15.02887782       0.04636926      -0.11445177      -0.03344286       0.61286575       0.30434039       0.62428105
H       22.82718900       0.92679250      16.61984205      -0.21085182      -0.03974304       0.11758096       0.52819276       0.06785530      -0.25471193
C       13.19112600       3.84978524      -4.33102526       0.52087671       0.57556811       0.27925208      -1.87423038      -0.11491598      -0.95804030
C       12.50263535       2.92727911      -5.27256068       0.02344810      -0.07649953      -1.15582377      -1.51859534      -2.18180776      -0.43963230
O       13.35875961       2.11572582      -5.95555787      -0.63788918      -0.46635951       1.02843984       0.00256652       1.34396267       0.60433805
O       11.26198419       2.73962591      -5.38098288       1.07072276       0.15667518       0.41187074       1.98792052       0.89697051       0.30797154
H        8.38060392      11.55462557       0.57987425       0.07344631       0.00788266      -0.10419603       0.80944246       0.34859842      -0.54282713
H       13.37668519       4.71381657      -4.95999158       0.13152585       0.13263204      -0.17323866       0.26329270       0.65092099       0.42520863
H       14.08224877       3.40738919      -3.99961708       0.08986556      -0.00357178      -0.14317057       1.39930487      -0.44960397       0.32554737
H       12.47860676       3.98945103      -3.52311090       0.24793047      -0.06763011       0.23432536       0.21685681       0.57490557       0.01233003
C       25.65295885      35.24851424      17.19111656      -0.76131439      -0.83560043       0.72287055      -0.32183558       1.26668024       0.46459621
C       25.72715660      34.23797508      16.09982210       0.67965949      -0.70596822       0.36233044       1.50332630       0.68041968       0.46838987
O       24.89327130      34.40301341      15.09140679      -1.35835347      -0.60863374      -0.17791021      -0.92772979       0.38928294      -1.07162797
O       26.59657777      33.37042464      16.07931255       0.23653580       0.95975378      -0.80923246      -0.58751297      -0.18622661      -0.11838832
H       16.14681866      27.61665104      13.71793410       0.29618671      -0.09366581       0.02084310      -0.15899754       0.32069850      -0.06089106
H       25.31273035      36.24244665      16.82340298      -0.30292991       0.29945569      -0.05599880       0.13572250      -0.70617467       0.12689772
H       26.57566453      16.27384789      17.75069227       0.14091609      -0.05882337       0.12120006       0.09334902      -0.50299978      -0.30172417
H       24.88627245      15.78456014      17.89440657      -0.06337431       0.18815166       0.12160821      -0.20855844      -0.06203374       0.25927651
C       27.13605935       5.75482669      24.16075830       0.43367265       0.02868866      -0.45897909       0.16890496      -0.60991627      -0.72803575
C       28.55274879       5.17060517      24.30534272      -0.16349693      -0.63410286      -0.17527633      -1.02614081       2.46341586       0.91560805
O       29.01677721       4.27668601      23.66790216       0.34608177      -0.55198285       0.30865979       0.32166737      -2.41352654      -2.04986596
O       29.29630285       5.79085993      25.20429250       0.55154433       0.08000148      -0.25687396      -0.21735704       0.73551166       1.02848005
H       16.46035090       5.39402950      28.72832876       0.05071631      -0.18575044      -0.19884693      -0.41831470      -0.31470585       0.20407981
H       26.86000814       6.54957956      24.87194044       0.18006281      -0.19784993       0.17212283       0.25912815      -0.52824754      -0.19228947
H       26.49816965       4.87250378      24.24424823      -0.29561251       0.16432902       0.16988180      -0.30718276       0.20157053       0.30755958
H       26.90824855       6.09773130      23.11663181      -0.11588276       0.01026835      -0.04469874       0.51242799      -0.25734016       0.78502810
C       -6.51097011      -6.36749165      14.92973151      -0.55979758       0.84425361      -0.09244005       2.12921000       0.24334475      -0.51703978
C       -6.23967119      -5.05033255      15.59148177       0.64862791       0.35661077      -0.35181690       0.43677166      -1.14019179       1.61355150
O       -6.74063077      -4.00546093      15.05764870       0.98988669      -0.08628242      -0.30458002      -0.43845409       0.55593526      -0.27585399
O       -5.55553416      -4.99235553      16.65827348       0.12626693      -0.02391375       0.26050429      -0.42385226       0.42440930      -1.00066471
H       -7.31301651      -4.23602763      14.14394605      -0.21378867       0.16238785      -0.28012581       0.18815124       0.66069543       0.05232608
H       -6.62573757      -6.22563831      13.87302865       0.19936482       0.13286119      -0.07483847      -0.54645908      -0.05773455      -0.56409705
H       -7.27431277      -6.93609216      15.35360945      -0.09233312       0.18050271      -0.26087215      -1.83822942      -0.44271785       0.82761949
H       -5.66076129      -7.04208661      15.03326385      -0.00460743       0.15532075       0.16358184       0.35817862       0.18342644       0.11833993
C       22.78998534       5.52294741      -2.36911497      -0.30631257      -0.25960670      -0.04176791      -0.56712848       0.98782480       1.39955115
C       22.96663618       7.02317332      -2.36853111       0.51117236       0.04542161       1.55410865      -0.20784014       1.44929266       0.19133784
O       24.13408658       7.40679397      -2.66945597       0.83667023       1.17946393       0.54457458       0.62204301       0.24851984      -0.29557538
O       22.02236443       7.87394220      -2.06643804       0.02466076       0.75599076      -0.10883165       0.62139297      -1.29866540      -0.37119776
H       13.90361904       1.19069584       1.67513388      -0.14831322       0.09195290       0.30055236       0.01332557       1.44211590      -0.11011773
H       21.89125799       5.28124966      -1.78974465      -0.23707383       0.02850835      -0.05874977       0.12913433      -0.31932187      -0.51555485
H       23.67118372       5.16921095      -1.80823620       0.05189351      -0.00794050       0.18599631      -0.38071156      -0.25797713      -0.47361669
H       22.78016856       5.18833911      -3.39638272       0.09550100      -0.16188659       0.05863374      -0.00353242      -0.41455725      -0.15442042
C        0.54810173       9.77899219      13.70068157      -0.25165357      -0.66979580      -0.42003113       0.29761833       0.56048793      -1.50932622
C       -0.88882008       9.43537810      13.37337932      -0.09857946      -0.53572310       0.06211390       0.84436363       1.06475270      -1.45658004
O       -1.41709925       9.89893685      12.31372659       1.10799632       1.40057149       0.39781632       0.05025363       0.82211101      -0.32806385
O       17.68962637       8.63870187      14.12659047      -0.12010881       0.60300407       1.36321033      -1.44133997      -1.66484976       1.63358974
H       -2.58706498      -3.12075005       5.52271793      -0.07259666       0.18505671       0.00510661      -0.27585301      -0.52711070      -0.25811234
H        0.79369538       9.47285006      14.70418283      -0.20413702      -0.11055144       0.11359327       0.22147934       0.29806024       0.30009255
H        0.82774469      10.81724267      13.38554730       0.13950962      -0.11036839       0.20864305      -0.51718265      -0.59903204       0.98854202
H        1.19264316       9.22850314      12.99277461       0.29197311      -0.20928008       0.11376694      -0.20297591      -0.28421611       0.43529430
C      -21.15427786       3.05432607      -6.25090073       0.06643804       0.48246377       0.34388033      -0.70154351       0.14506263      -1.50900912
C      -20.76450299       2.75377284      -4.85795775       0.45739477      -0.87312633      -0.30820837      -0.11328119      -0.27716103       0.01713395
O      -19.54369542       2.37212171      -4.69090193      -0.16423262      -0.49407723       0.60972658       0.45484614       0.08887154       0.72784442
O      -21.65844954      21.97658651      -3.99932980      -0.08355326      -0.35181230      -0.12337077      -0.13521969       0.32745278       1.04672885
H      -19.08081567      21.66022791      -3.41685244       0.12229612       0.13044431       0.01245931       0.17037714       0.20096004       0.49489200
H      -22.11067456       2.49796716      -6.44476908      -0.18230027       0.11962957       0.23743092       0.91421294       0.30961663      -0.10442610
H      -20.32809214       2.73759355      -6.91571416       0.14476629       0.30993457       0.00415784      -0.72438794       0.26180482      -0.02302375
H      -21.43336259       4.12405376      -6.43527946      -0.08436654       0.09908340       0.02281802       0.48558933      -0.76988876       0.33261439
C       -4.45691465       7.71900047       4.06440906       0.19513836       0.10308354      -0.47762187      -1.30066717       0.52332181      -0.79558706
C       15.31321678       7.22606976       2.76715365      -1.25990682       0.43177294      -0.12384795      -2.39394236       1.29350317      -0.13348541
O       15.06188352       7.98399295       1.71857815      -0.24241807      -0.43121646      -0.29167552       0.75896543      -0.18590903       0.19496587
O       -3.31389790       6.12676837       2.72337337       0.37456927       0.90598855       0.84437155       1.50348496      -1.58126378      -0.20737314
H       13.71989205       9.05639314      -9.95848813      -0.18332369      -0.39967782       0.15156048      -0.32153398      -0.48410791       0.29132545
H       -5.51532432       8.07353969       3.89412391      -0.10237250       0.24742711      -0.00112379       1.20722139      -0.17788905      -0.05808121
H       -3.89389389       8.58559159       4.38078664      -0.14694675       0.07371647       0.08408248       0.14258374       0.24738215       0.48609257
H       -4.53105752       6.95123926       4.82414424       0.06471915      -0.02431921       0.31793830       0.49154651       0.01235900      -0.06925054
C       30.27125826      20.75899229      -1.99202357      -0.80218319       0.32427160       1.51781274      -0.12453727      -1.12115443       0.67109656
C       29.69835010      22.05075303      -1.59995040      -0.15580317       0.37957295       0.34122487      -0.86143398      -3.22232318       0.58797783
O       28.63916612      21.96565696      -0.80784459      -0.50783527       0.38267788      -0.29166687      -0.32905889       2.58931780       0.71488661
O       30.24257771      23.02747254      -2.00022036      -0.93287894       0.58086232       0.44289155       0.92358911       3.80676007      -0.70866400
H       15.14681939       7.25899008       0.62466935      -0.05693127      -0.13685555       0.04509671      -0.55706424      -0.12391040       0.51446009
H       30.34956300      20.71351044      -3.04162460      -0.04559196      -0.25077445       0.10697328       0.17656466       0.10874193      -1.37165403
H       29.70847223      19.89684749      -1.68197888      -0.23372401      -0.04276163      -0.19550487      -0.36021519      -0.32151294       0.35324317
H       31.26467942      20.70521936      -1.58174731       0.00128015      -0.09467759      -0.09028566       0.54645121      -0.15140358       0.16076279
C       -7.83561548      -6.38599898       9.80072648       0.37890664      -0.52090593      -0.67404905       0.21081012      -0.41323322      -0.08814128
C       -7.54360961      -5.30597272       8.80503066      -0.19704660      -0.43999652      -0.22628686       0.59469193      -0.02202666      -2.24264956
O       -6.88280590      -5.44434705     -11.40310940      -0.05521138      -0.27093285      -0.29630134      -0.79751456      -0.23862919       1.79745054
O       -8.14009964      -4.13922924     -10.10892168      -0.34502517      -0.75525484      -0.69624333       0.55807990      -0.22430378      -0.11034858
H       14.47817908      -1.38001161      13.67730071      -0.21251839       0.24811827       0.27619395       0.48884386      -0.20599525      -0.05508871
H       -7.31258511      -7.33427261       9.58553814      -0.17755684       0.10330877       0.06453219      -0.10178397       0.69882172       0.09987899
H       -8.91140388      -6.55664215       9.78140397       0.27948745       0.25112473       0.03615030      -0.03205141      -0.15023285      -0.33479550
H       -7.69041884      -6.01678848      10.81814192      -0.32752716      -0.01083318       0.03594652       0.48882398      -0.17397162       0.02395892
C      -10.03522420      -3.84613706      13.51834934       0.16376476       0.09552610       0.25642386       0.73441148       0.62104672      -2.76908636
C       -8.94524784      -4.19341393      12.51031878      -0.14705200      -0.24394124      -0.54324309      -0.47319371      -0.09585723       0.43637985
O       -7.73388409      -4.20749353      12.88074472       0.81582152      -0.58360390       0.40498171       0.38795120      -0.20768110      -0.39826632
O       -9.31271802      -4.51973981      11.33494766      -1.01277357      -0.68097851       0.03284332       0.15038487       0.18887120       0.71226382
H       -8.55280882      -4.24825589       9.93782816       0.03892789      -0.18720957       0.26013344      -0.53366351       0.38971549       0.65394109
H      -10.79785232      -3.30580692      12.98024221       0.16289309       0.14031246       0.10486332      -0.41008747       0.16914292      -0.04961205
H       -9.75868538      -3.31083646      14.35934337      -0.09007537       0.16837361       0.43249703       1.06389117       1.14061427       1.37241292
H      -10.43018435      -4.72223939      13.87096505      -0.04806812      -0.29351589       0.23625162      -1.21801817      -2.31850934       0.82550085
C       -3.19059313      -1.41211129      22.49820385      -0.14102615       0.09416837      -0.17976252      -1.39975262      -0.54782945      -0.65983498
C       -3.77400410      -0.32157390      21.60518482      -0.30343446      -0.26635369       0.05204724       2.56311727      -0.79109442      -0.24695975
O       -4.97093268      19.08046575      21.50597112      -0.49357325       0.47433473      -0.24964008       0.03552759      -0.30116746      -0.06549942
O       -2.84384518       0.25946776      20.79176663       1.11885446       0.08319232       0.55535928      -1.41962838      -0.09773442       0.47502768
H       17.03953265      11.54800096      12.20190570      -0.00944724       0.21499612      -0.07570195       0.12549961      -0.66540563       0.27023849
H       -3.26063322      16.79490350      21.91160811      -0.13000546      -0.05982991       0.16873763      -0.20603338       0.26144162       0.48828238
H       -3.68907890      -1.54047840      23.45586938       0.02707800      -0.23903753       0.01833601      -0.35372290      -0.01240383      -0.31199253
H       -2.15557721      -1.36917001      22.71925042       0.08345938      -0.03513651       0.07142916       1.06927776       0.71573508      -0.09881970
C        6.52248254      14.40716494       6.00321645      -0.27217330      -0.24207909      -0.58498522       0.41001898      -0.05152934      -0.47166523
C        7.99410877      13.95192312       5.84033788      -0.37186342      -0.47031914      -1.23813508      -2.41091013       0.70196891      -1.04429126
O        8.68353883      13.99900644      25.99025246       0.51767849      -0.33859764       1.25779979       1.38302743      -0.42108321       0.07848430
O        8.36902069      13.58272000       4.61041643       0.41400170      -0.22034776      -1.37172136       0.73846126      -0.07459807       0.93654919
H       12.87795488       1.28391898      -6.10309709       0.04614903      -0.06831890       0.11563546      -0.22996202      -0.91981411      -0.39231044
H        5.86330568      14.22249813       5.12061233       0.11101834      -0.03209604       0.29838651       0.74103123       0.53556705       0.58945704
H        6.58044541      15.46079377      25.51369483      -0.23565064       0.06777562      -0.00686346      -0.38019577      -0.64107692      -0.59959209
H        6.13728784      13.82672009       6.83118962       0.11136600      -0.15169798       0.00142466      -0.24226549      -0.11953564       0.27163264
C        3.11542183      32.10152756       8.24342129       0.52430090       0.41424593      -0.62720957       0.67414039       2.03695846      -0.42258871
C        2.18389494      31.47757970       7.24071440       0.03463220      -0.52712510       0.28561679      -0.33134133      -3.83894324       1.52313185
O        1.65397117      32.06937999       6.32127823       0.51653595       0.48639295      -0.24542652       0.00659013       2.09523702      -1.82061172
O        1.84494163      30.20258865       7.43779396      -1.01476127       0.78861189       1.09143247       1.15679395       0.96108603       0.72793770
H        2.46916532      29.38036102       8.66777026      -0.02482669      -0.12871637       0.05725521       0.21230382       0.41186157       0.06269050
H        3.44968867      33.15091270       7.93959563       0.23114211       0.01765675       0.05277735      -0.63245761      -1.37072456       0.20704812
H        4.02002391      31.54779471       8.50258120       0.14011821      -0.17027953       0.02506729      -0.30346102      -0.42263955      -0.26816103
H        2.54885397      32.20658322       9.15713166      -0.07407677      -0.05115551       0.06814810       0.04600534       0.11886889       0.47142398
C       15.66859057       3.77541383       4.89686131      -0.05338640       0.60080031      -0.23143511       0.08035199       0.03989995       1.91830254
N       14.65816826       4.45052518       5.75305200      -0.14920347       0.73400844      -0.32689575      -0.70468235      -0.33505490      -0.26812547
C       14.85285134       5.49852240       6.61291192       0.13899638       0.25177403      -0.59916264      -1.24451590       0.58662337      -0.33847332
C       13.59252974       6.02145674       6.86448559      -0.14413122       1.02665226      -0.37426656      -0.67700446       0.70947522       0.69199133
N       12.58848281       5.19785895       6.36334533      -0.08974288       0.94060567       0.65252250       3.09585619      -1.00981879      -1.14166951
C       13.32659271       4.27200957       5.67978147       0.74233990       0.68690021      -0.87793655      -1.63963139      -1.02680576      -0.20305583
H       16.04457103       4.50170848       4.22223198      -0.19726690       0.14482435       0.00453528       0.64544958       0.80871320      -0.45786789
H       15.21023563       3.02556733       4.26682360       0.05343495       0.07442838       0.03080187      -0.33487260      -0.42503780       0.32260448
H       16.45544332       3.39535819       5.61030724      -0.15449897      -0.05848902       0.06933492      -0.67469466       0.18219745      -1.07543492
H       15.78510124       5.62969221       7.08439565       0.12053028      -0.02615079      -0.26151760       0.68808240       0.40134460       0.38467327
H       13.27023306       7.01493989       7.24403681      -0.31166889       0.46076384      -0.34496739       0.76822704      -1.06370354      -0.11411381
H       12.93528059       3.34814975       5.22984082      -0.08493869       0.25453651      -0.19439104       0.02712147       0.64424795       0.12602538
C      -11.98474114      14.41719212      48.28465778      -0.34359877       0.13495201       0.27337991       1.71596766       0.60590380      -0.24538407
N      -11.66650199      15.74032740      47.68780225       0.50478274       0.93656636       0.03689026      -1.99769175      -2.12482333      -0.11611035
C      -12.60323442      16.42170205      46.96848605       0.63235509       0.19623742      -0.66181997      -0.77053821       2.12781000      -0.79793322
C      -12.09119376      17.71121444      46.76609479       0.32496731       0.80288363      -0.68420005       1.14418495      -1.34191060       0.47266859
N      -10.83369522      17.75326358      47.39342033       0.76186938       1.07228120       0.05389096      -0.93793744      -0.59458381       0.00146008
C      -10.69654907      16.55929147      48.00677910       0.00703077      -0.14712881      -0.38920076       1.55827093       2.24976110       0.08953537
H      -11.03977323      -5.18946670      48.62830925       0.18382871      -0.04713178       0.01183399      -0.55488861       0.33044827      -0.37086496
H      -12.51823273      -5.38611572      47.60487011       0.05064627       0.12616347       0.12956213       0.02257225       0.15125075      -0.25533444
H      -12.57247076      14.63887205      49.13106212       0.15924415      -0.12482872       0.09825003      -0.74349952      -0.17400947       0.94812226
H      -13.62129458      16.05899824      46.77970368      -0.01001024      -0.00378920       0.20732410       0.69070983       0.01080696       0.04376075
H      -12.39640468      18.55982043      46.16748900      -0.15400501      -0.14857413       0.09969647      -0.25572670      -0.29957148       0.11111057
H      -10.04892279      16.44459293      48.86231756       0.10155130       0.16627995       0.21431494       0.00380901      -0.30121005      -0.27048057
C       31.11060511      22.92987407       9.97913242       0.73474575       0.91491226      -0.55568843      -0.00275573      -0.97691727       1.24316859
N       32.49765440      22.87015078       9.62217162      -0.71709762      -0.10359231       0.15613367       1.70087445      -0.55125844      -0.58485037
C       33.15285403      21.89632821       8.86363914       0.46295727       0.45595199      -0.60139482      -0.19031300       0.95562947       0.63909411
C       34.45935246      22.26314364       8.76932706       1.02393376      -1.10360612       0.22659924       0.38988858       1.14135623       0.48438901
N       34.60948976      23.51584373       9.45141183      -0.47304134      -1.18560030      -0.50585231       0.34659126      -1.60530078      -0.46373299
C       33.43724827      23.79923152       9.96484797       0.33644824      -0.32103013      -0.12765978      -1.71012211      -0.07078665      -0.27526283
H       30.72201451      23.87675688       9.62044360      -0.01896856      -0.00387625      -0.08223419      -0.59815800      -0.30688769      -0.33982340
H       31.07823234      22.96056504      11.07267284       0.20407985      -0.00330727      -0.32897005      -0.12071267       0.25668103       0.00903070
H       30.61898332      21.95099716       9.76793545       0.15151030       0.04475542      -0.01519068       0.07578149       1.09427738      -0.58232737
H       32.60963805      21.08991351       8.44379709       0.01934753      -0.15962722      -0.12850947      -0.23017003      -0.57724303      -0.21640244
H       35.28931989      21.73351728       8.27916408       0.32232530       0.04146342      -0.03363854      -0.49392331       0.56828088       0.39073807
H       33.06490686      24.69131994      10.47503283       0.11993375       0.25869302       0.08908671       0.68003666      -0.10109812      -0.12381373
C       17.96279650      29.51010501       7.81798067      -0.73033509      -0.29726915      -0.19245718       0.28458005       2.17092752      -0.07862636
N       16.55247348      29.67362284       8.04610419      -0.26925431      -0.41835210       0.62018822       0.69228053      -1.66854668       2.41035986
C       15.67226630      30.46161463       7.40459151      -0.40041707      -0.30945355       0.20594692      -0.92503560      -0.24827641       1.23641419
C       14.52877131      30.47632035       8.14366865       0.39449537      -0.07594849       0.19789193      -1.40067816       0.34156027       0.92676759
N       14.70566807      29.58021756       9.22328884      -0.36569181       0.27514571      -1.31414077      -2.75782728       1.47420716      -0.76796716
C       15.91864659      29.16525443       9.17553797      -0.94700807       1.06229072       0.47059942       0.80917251       0.62188166      -1.88995826
H       18.18664216      28.69687903       7.19794827      -0.13621858       0.06052230      -0.05830417       0.24247932      -1.30819583      -0.66142005
H       18.51628123      29.50800348       8.73241638       0.05763726      -0.14231001       0.24279627       0.04942900      -0.66095781       0.75678217
H       18.38334184      30.40945816       7.35896480       0.10681072      -0.10035008       0.30179737      -0.24911173      -0.03452596      -0.43162271
H       15.91519989      30.85993465       6.49446218       0.16677065       0.01307027      -0.01036248       0.48799571       1.03673911      -2.05342531
H       13.62786992      31.16467905       8.08194716       0.07543925       0.04823651       0.12073827       1.39122295      -1.03563952      -0.02024128
H       16.22351686      28.44630693       9.87099195      -0.09313314       0.33133691       0.12792085       1.28500926      -0.85445917       0.56533712
C       10.68775745      -2.16896572       5.81464948      -0.10596767      -0.24785968       0.57856349      -0.17480306      -0.21703316       1.50202131
N       11.95433623      -1.52097420       6.23177501      -1.13409984       0.21820051      -0.34518993      -1.41149652      -1.41905522      -0.62237364
C       12.63463359      -0.79629327       5.30571364      -0.07664307      -0.46064017      -1.10676583       2.66936111       1.14307475       1.83944762
C       13.82993425      -0.47799289       6.02147494      -0.18933071      -0.22142407      -0.48149785      -1.75674176       0.19000924      -1.64176011
N       13.81218900      -1.02781738       7.24726610      -0.24022311       0.20996587       0.74670660      -0.19189167      -0.56071222      -0.26558506
C       12.70031078      -1.72482321       7.34940936       1.08315205       0.45873552       0.52158802      -1.11003971      -0.39030755       0.96782374
H       10.13551966      -1.42806876       5.20778796      -0.25261890       0.02402365      -0.20936224       0.09310651      -0.53752327       0.39831787
H       10.09949903      -2.46591835       6.74955244      -0.02165186      -0.00601463       0.11527157       0.71332532       0.33966255      -1.42203140
H       10.95978502      -3.05547905       5.22296623      -0.20712374      -0.14322538       0.00240993      -0.44662580       0.19288135       0.19421819
H       12.22825009      -0.48835778       4.34629683      -0.10521598      -0.16819940      -0.06112090       0.18972458      -0.09235613       0.29638129
H       14.66949242       0.12105252       5.80724076       0.19906317      -0.06993050      -0.22506323       0.51703560       0.67575270      -0.80536860
H       12.42785762      -2.34656135       8.23905358      -0.12179054      -0.19917342       0.01675035      -0.00253250       0.66717082      -1.39874434
C       16.42576789      -3.61087266      10.22588526       0.80908748      -0.87162707       0.13960563       1.40667176       0.22325148       1.44693780