640
Lattice="19.152215 0.0 0.0 0.0 19.152215 0.0 0.0 0.0 19.152215" Properties=species:S:1:pos:R:3:momenta:R:3:forces:R:3 energy=-80020.8046875 stress="0.0021775790955871344 -0.00047569876187480986 -0.00010388802184024826 -0.00047569876187480986 0.0008209844818338752 0.0008471711189486086 -0.00010388802184024826 0.0008471711189486086 -0.0009843872394412756" pbc="T T T"
C        3.39117105       8.57911905       0.28946516       0.99581956      -0.89748936      -0.78031293       0.14814316      -0.69009084      -2.69076681
C        3.32929560      10.07370177      -0.08257505      -0.03344812       0.19970241      -0.57976441       0.13799414      -2.71719480       1.83257449
O        3.35955205      10.90453578       0.78137249      -0.37058816      -0.90102971      -0.17274903       0.31751952       2.18935609       2.66104126
O        3.13516364      10.47346878      -1.27450972      -0.53024493      -0.71547778      -0.26271665      -0.20107402      -0.01264179      -3.42710352
H        2.97030153       9.71814100      -1.97211775       0.11277606       0.03104078       0.14314212      -0.03351068      -0.51716876       0.07235265
H        2.37051103       8.21142175       0.48131044       0.04231090       0.02114848      -0.08740106       0.21841359       0.11022902      -0.49154311
H        3.94929252       8.24881336       1.15484859       0.13917684      -0.02995934       0.11898776       0.53539312       0.75347418       0.28200573
H        3.82601157       8.05105669      -0.64291207       0.23558963       0.05223043      -0.03937884      -0.87366986       0.45249301       1.48288906
C       23.87298343       1.29732981      18.03458403      -0.84808921       0.23363931       0.29838317      -0.95628059       0.72990364       1.00678694
C       23.95064931      -0.09771028      17.65263807      -0.71692501      -0.17152505       0.88087911       2.42663264      -0.09217432      -0.26378953
O       24.98784433      -0.44168148      16.96237973      -0.54199803       0.21736529      -0.01835543       0.00317401       0.21652079      -0.71416080
O       23.20207085      -0.92567501      18.14687404      -0.56538784      -0.03520986      -0.23005046      -2.18365908      -1.31625473       0.78786594
H       24.57985374       7.16856652       8.23098658      -0.04791275      -0.00917282      -0.23644602      -0.03557295      -0.64065486      -0.38339302
H       24.58922062       1.94372233      17.58217817       0.06696748       0.38401637      -0.08874893       0.61497575       0.35840306      -0.18970554
H       23.92418918       1.29385014      19.12852884      -0.09327549      -0.03075603      -0.12141282       0.39489582       0.37090996      -0.19644658
H       22.88216515       1.65784163      17.83424306      -0.02462890      -0.10564869      -0.21520552      -0.73648578       0.24996577      -0.25719091
C       13.50407919       4.91064559      -5.30098598       0.23081004      -0.42166753      -0.51856060       2.40792704      -1.77440262      -0.15346800
C       12.74283687       3.74603471      -5.88680060      -0.18014609       0.39563822      -0.11977105      -0.54955876      -0.04872748      -0.85617495
O       13.41232562       2.57624870      -5.87737925       0.12427685       0.04283724       0.19460110      -0.99345779       1.70240891       0.50262839
O       11.62183870       3.94972273      -6.42572230       0.42222060       0.27042908       0.02422450       1.53238451      -0.73657119       0.90672243
H        9.21302466      12.28792899      -0.57113985      -0.10268934      -0.18859449      -0.14818226      -0.23400530      -0.90864736       0.17756712
H       14.61444423       4.74457385      -5.55889532       0.14901513      -0.12010327      -0.02772393      -1.46094668       0.31627843       0.61773366
H       13.42513232       4.93317329      -4.21635467      -0.07460006      -0.18357829       0.06690678      -0.12754028      -0.11581940       0.12910895
H       13.18404083       5.82025720      -5.72103640      -0.08201394      -0.08075875      -0.15032143      -0.51701987       1.09906983      -0.46912903
C       26.55053332      35.26397117      17.80143016       0.31061355       0.20206304      -0.54931514       0.32808363       0.26240370       0.26269332
C       25.95093713      34.80549871      16.52575517       0.58188405       0.34523296       0.21409124       0.60170871       2.01900029      -0.70842081
O       25.20339131      35.69107517      15.86028093       0.13730640       0.28525835       0.09281491      -0.44423005      -0.84545243       0.01810169
O       26.29861646      33.73949060      16.03210919       0.40814059      -0.21357900      -0.98256695      -0.64038563      -0.74858010      -0.45209908
H       15.82198717      28.48077464      13.17025403      -0.02104101       0.14391819       0.02333397       0.55440086      -0.14263268       0.24720800
H       25.88200398      35.88292178      18.39424926      -0.20605399       0.01275130       0.12255084       0.05492620       0.07853334      -0.04952576
H       27.53368317      16.61944977      17.66626021       0.24877223      -0.02824987      -0.09949181      -0.77062035      -0.23664196      -0.16330706
H       26.74937130      15.19069323      18.29167829      -0.23930967       0.10945176      -0.23188842       0.39837494      -0.58007371       0.91414160
C       26.94856318       5.13021040      25.27254332       1.31165435       0.10814287       0.20646219       1.39101601       0.89855862       1.05348444
C       28.43946778       5.02774533      25.57554869       0.74308520       0.41106270       0.83186516      -0.07329440       0.52094883       2.14132404
O       29.07171784       5.66684303      26.46311258       1.13921687       0.30304224      -0.29911495      -1.33468461      -1.25884676      -2.20198703
O       28.99178617       4.10594850      24.79800799      -0.01612835       0.38900913      -0.43724375      -0.62025499       0.13254179      -0.22423995
H       16.86869913       5.18551851      28.86513296      -0.18458274      -0.15714254      -0.03661667       0.29659170       0.02786493      -0.60183561
H       26.43399158       5.26813942      26.21973889      -0.25056715       0.23931525       0.29934962      -0.10163051       0.31418931       0.07005342
H       26.57572169       4.21760609      24.82804242      -0.02149722      -0.01534467      -0.30235618       0.02846596       0.19271761      -0.45057058
H       26.93462577       6.07514391      24.70419926       0.23927440       0.15128945       0.01568585      -0.87515330      -0.40365881      -0.17195173
C       -5.67059213      -6.06150597      15.06116438       0.51779614       0.99588547      -0.40155757      -1.83877754      -1.11183548      -0.39401898
C       -5.58928032      -4.77871246      15.72052236      -0.01411830       0.64373004      -0.20950280       0.21012649       1.39699876       0.72633857
O       -6.55306670      -3.94594867      15.54363570      -0.54036230       0.10593228      -0.84936890      -0.01053470      -0.09753180      -0.08678076
O       -4.60788718      -4.48682288      16.44604092      -0.48859221      -0.86179924       0.99833538       0.77815539      -0.20383784       0.73013347
H       -7.39750189      -4.35923475      14.47941081       0.03443632       0.03659709       0.27835092       0.67681736      -0.47496340      -0.15487397
H       -6.65780863      -6.45883992      15.38508763      -0.44886624      -0.02695291      -0.01529444       0.46812373      -0.20913589      -0.43273944
H       -4.95328512      -6.83306286      15.23581522      -0.21558072       0.07278635       0.08086309       0.79764330      -0.12464499       0.44924915
H       -5.75203778      -5.87880890      14.00976979       0.11652510      -0.14148657       0.07749253      -0.10177621      -0.07502595      -0.71272838
C       22.47904378       7.17397512      -4.68605495       0.64338157      -0.72646672       1.68740127       1.34690905       1.08797777      -0.09596473
C       22.82452306       8.10561578      -3.52491922      -1.02828356      -0.21491363      -0.06747244      -4.79217529      -1.09476089       0.71706414
O       23.99128842       8.40301983      -3.27703423      -0.08075073       0.50707535      -1.14739504       1.95718932       0.44766513       0.41849267
O       21.75973895       8.45929622      -2.82277295      -0.16554012       0.41611648      -0.77571988       2.13923478       0.22264022      -0.83831853
H       14.23381719       0.77706558       1.74311344      -0.19430053      -0.06903163       0.10162527       0.15183944       0.00854194      -0.07487887
H       22.99855338       7.64116452      -5.55718853      -0.02069074      -0.08874445       0.12991766      -0.75481272      -0.47030458       0.25679749
H       21.40003262       7.10038525      -4.80820929      -0.23389040       0.14136899      -0.12629409       0.24749689      -0.14009030      -0.20279415
H       22.98517204       6.21486711      -4.53899611       0.14526858       0.22110609      -0.02309981      -0.32028648      -0.01301599       0.00774564
C        0.27538489       9.27612235      13.36793854       0.67660924       0.33761423       0.23799274       0.32798234       0.07186710       0.18960151
C       -0.97013058       9.90181954      12.80445174       1.55368912      -0.77435118      -0.46844623       0.94040322      -0.61515784       0.21996376
O       -0.87778624      11.15327545      12.53107038      -0.37615900       0.30512453      -0.43573796      -0.53912550       0.55596781       0.51335263
O       17.21350734       9.16311343      12.54030097      -0.79695265       0.22222419      -0.35228264      -0.74995512       0.02721800      -0.08357856
H       -2.64691853      -2.51218432       5.92438042      -0.17267350      -0.13806011      -0.00053168      -0.01783851       0.15008521       0.39178640
H        1.06595954       9.54536512      12.63924184       0.29619758      -0.01809876       0.04551503      -0.06255990      -0.54470366       0.51130819
H        0.11804743       8.19816576      13.48898270      -0.15120480      -0.13881346      -0.37136060       0.19007567       0.23638517      -0.41528770
H        0.58322637       9.62855926      14.37113414      -0.02130259      -0.07464404      -0.11653022      -0.29456359       0.33929425      -0.55378699
C      -21.42206383       1.64365506      -6.74130747       0.32036972      -0.39883235       0.62574742       1.18322790       0.21682620       1.16660547
C      -20.75421978       2.13680363      -5.45979966      -0.22540009       1.21889554       0.63320314       0.41061911      -0.51484728       1.18709373
O      -19.58229856       1.50245244      -5.13706598       0.50592139       0.21023578      -0.74717003      -1.65525389       1.13860118       0.20906991
O      -21.31639364      22.15301758      -4.74330975      -0.04628625       0.15104509      -0.49608920       0.96115100      -0.93619263      -0.64342791
H      -19.18172076      20.87282725      -3.97085464      -0.31067560      -0.38600328      -0.05289627      -0.71877933      -0.00057614      -0.46736905
H      -21.78585766       2.46743097      -7.30712906      -0.05054154       0.40244133       0.13352732      -0.44314387       0.60865998      -0.34123027
H      -22.23493252       0.97693319      -6.49126660       0.16426125      -0.09618176       0.02931864      -0.37670320      -0.05061462       0.08498368
H      -20.69026618       1.10073882      -7.29522919      -0.08008457      -0.21056601      -0.18870225       0.38210315      -0.50829196      -0.52895069
C       -5.62240571       7.70654469       3.74868083      -0.83320759      -0.08144637       0.38738089       1.93191123      -0.14878415       1.00554693
C       14.53619331       7.16438641       2.70758741       0.34165634      -0.16318702       0.34842035      -2.30078959      -0.10352230       0.27025312
O       14.24220049       5.90420649       2.26335092      -0.00746856       0.31242627      -0.12391590       0.50256270       1.03654456       0.94564956
O       -3.79247503       7.86278938       2.16284240       0.48514312      -0.16304322      -1.15805259       0.94007093       0.39030075       0.01809758
H       13.21314948       8.50929358     -10.36031525       0.03284349      -0.12072099       0.21710490       0.15822777      -0.37730360      -0.31822693
H       -6.31190969       8.36177830       3.21151874       0.21200601       0.02080737       0.08448324       0.17844790       0.20228021       0.30010456
H       -5.05156501       8.26636404       4.57809797      -0.06421251       0.14310174       0.07593381      -0.78282315      -0.53134447      -1.44213617
H       -6.16169583       6.90461653       4.24898769      -0.06923824      -0.04976691      -0.03689909      -0.11977440      -0.06319474      -0.36562628
C       30.50200945      21.07833083      -1.26032392       0.09017622       0.71097752      -0.34736583       1.64529729       1.21275425      -1.61859441
C       30.03986184      22.46555503      -1.54409350       1.01845501       0.14977276      -0.89799285      -1.68122268      -1.02262378       0.43355417
O       29.16874794      22.83939883      -0.62603059       0.35072031      -0.36607509       1.12502178      -0.66645074       0.55357075       1.12027788
O       30.26524729      23.09584717      -2.54850107      -0.52967247      -0.21533639       0.52898112       0.85554868       0.99699032      -1.30090106
H       14.89501844       5.80577847       1.52389433       0.15905380      -0.18956142       0.02466434       0.06367806      -0.37769297      -0.81654817
H       31.33315999      20.87109489      -1.91862493       0.07840025       0.04058209       0.19054193       0.11666163      -0.19927138      -0.35605991
H       29.75703804      20.35866873      -1.40970842      -0.10429059      -0.21696014       0.16015308      -1.22169340      -1.04350317      -0.04029275
H       30.88972856      21.04089064      -0.29773431      -0.15698746      -0.04491965      -0.23658871       0.39755309      -0.33782297       1.87275887
C       -9.21136458      -5.56325402       9.10901230      -0.41974321       0.09850421       0.01999017      -0.84724814      -0.64908355      -1.48064792
C       -7.88834316      -4.88435940       9.03312044      -0.00363709       0.33747823      -0.08046069       0.35814899       0.29777968      -0.85705018
O       -7.08355620      -4.92664011     -11.06342860       0.29848586       0.73322666      -1.09217698      -0.84027529      -0.19310309       1.52095449
O       -7.66311238      -4.05856871      -9.07839463       0.15920321       0.87996642       0.09605646       0.81805307      -0.19045621       0.15852094
H       13.98306832      -0.13256906      13.92600071      -0.01148636      -0.13933974       0.03724315      -0.52017331       0.37781239      -0.68135917
H       -9.93563378      -4.77093292       9.33531878      -0.01136079       0.03184979      -0.19542575      -0.02676409      -0.39880586       0.36494398
H       -9.23697926      -6.35833354       9.87150377      -0.01346292      -0.29592944      -0.10406939       0.05677049       0.46497247      -0.01811148
H       -9.56722530      -6.00268610       8.12722397       0.22782038       0.20432495      -0.02758621       0.85671723       0.42490399       0.89544541
C       -9.43026384      -3.19094525      14.54968184      -0.79423703       0.18896286      -0.70654975      -0.91929257      -1.18623292       0.38206780
C       -8.80221819      -3.76838012      13.35634380      -0.22198810      -0.38622518       0.45745320       0.53152680      -1.51568961       0.57175738
O       -7.81946233      -4.65888632      13.55287836       0.13477700       0.32595304      -0.00293387      -0.52844656       1.24127543       0.13558722
O       -9.27742603      -3.64758413      12.24125230      -0.59932933      -0.21715926      -0.15498453      -0.08793893       0.26333100      -1.64398026
H       -8.08473649      -4.34615811      10.92978432      -0.25962210       0.05659482       0.17760644      -0.21608885       0.27701238      -0.38882959
H       -8.69206216      -2.91608738      15.28925329       0.15800990      -0.21376500       0.27824489      -0.07412067      -0.17898366       0.46734244
H      -10.10946202      -4.06101294      14.85513924      -0.06681225      -0.02591039      -0.06532455       0.91898489       1.22941256       0.35109350
H      -10.10529374      -2.38331087      14.35630002       0.20872602      -0.00472749       0.19233371      -0.17942891       0.56667376      -0.39726743
C       -2.38724642      -1.94985139      21.73586996      -0.25547413       0.82591781       1.05413950       0.76579022       1.53849673      -2.39396143
C       -3.12864957      -0.60634971      21.56691770       0.29804569      -0.63855910      -1.03324472       0.15619574       0.77365774      -0.37898707
O       -4.24146246      18.57154894      20.95379282      -0.97504275       0.18614556       0.37786975       0.02478933      -0.75767648       0.38563275
O       -2.58704600       0.51429146      21.91127927      -0.05762616       0.30722431       0.01951790       0.30286980      -0.94381583       0.40277690
H       17.27866853      11.68834220      12.11004688       0.09739999      -0.06987307      -0.00662075       0.14423956      -0.18096921      -0.30633011
H       -1.29503504      17.36174470      21.56596017      -0.03930989       0.01350558      -0.00444623      -0.63172162       0.04444018       0.38268846
H       -2.65991073      -2.51975616      20.83325653       0.24914694      -0.03664680       0.08471617      -0.16214174      -0.33122045       0.64758104
H       -2.51072928      -2.45641401      22.65613056       0.02953531      -0.13861044       0.27122148      -0.50388312      -0.36337724       0.80715132
C        7.08196138      12.15999447       4.51276660      -0.45113299       0.04414098       0.37169925       0.62964016       0.01622403      -1.09092569
C        8.48598453      12.62543616       4.86262369       0.46603886       0.86067048       0.77930959       0.88855529       0.94112360       0.65107131
O        9.04320705      12.48900507      25.10805327      -1.15530425      -0.06424557      -0.08870132      -0.79549891      -0.60885173      -0.21851146
O        9.16396403      13.35014182       3.95001688       0.23974071      -1.17332704       0.27494910      -0.63180137      -0.65427774      -0.22794306
H       12.73755035       1.82465484      -6.35607523       0.07582171       0.02503310       0.06596653      -0.09232748       0.16153705      -0.10066262
H        6.93577346      11.09414427       4.81208689       0.04075951      -0.03187070      -0.24683504      -0.12949000       0.97262102      -0.13227339
H        6.92972515      12.33063909      22.56966541       0.23541923      -0.13804083       0.03587742       0.08357748      -0.63447416       0.82198155
H        6.36060578      12.86210830       4.94509727       0.24197490      -0.21977304      -0.00240317       0.13357243      -0.41214973       0.54560399
C        3.64651302      32.86933126       8.05266534      -0.46998521       0.08113133       0.15557980       0.95742679       2.55542231       0.63316381
C        2.39697575      32.89596330       7.19350870       0.69105416       0.53676308      -0.01659568      -0.01845059       0.04906911      -1.14900219
O        2.15534052      33.73120838       6.28619330      -0.85260505      -0.74393011       0.73342861       0.57007301      -1.19259739       1.31571925
O        1.58562673      31.86780541       7.38902655       0.62483581       0.97883671      -0.14594520      -0.17138731       1.34100878      -0.56468850
H        1.89946351      31.00386127       8.05110728       0.18335911      -0.21910171      -0.27146469       0.00500816      -0.60979325       0.57741594
H        4.16722927      31.94810301       8.03878055      -0.24639387       0.08554138      -0.18522541       0.25523841      -1.19635451      -0.17427155
H        3.38403446      33.05216301       9.09192073       0.36823441      -0.08124131       0.11232278      -0.46166682      -0.29759678       0.29080737
H        4.44767860      33.68192559       7.94439682       0.04249436       0.14024782      -0.14459494      -1.41334796      -0.92122078      -0.79425788
C       15.65012959       2.67754703       5.07593484      -0.22331704       1.07145003      -0.02002215       1.03379774       1.41193783       0.93375081
N       14.55783240       3.58336555       5.41036354      -0.08403519       0.10422698       0.63177913       1.20303977       1.34814191      -0.54339254
C       14.70738686       4.92082681       5.70195992       0.01535355       0.73897815       0.02234298      -2.65913773       1.13643336       1.25750196
C       13.37617278       5.35504171       6.08558290      -0.10211342      -0.54222011       0.42694370       2.02362990      -1.72529185      -1.24153626
N       12.47544430       4.31446000       5.86781941      -0.03050297      -0.68268309      -0.06620526       2.26724625       0.08498134      -0.12156295
C       13.27378265       3.29568242       5.47462484      -0.56896837      -0.67410136       0.78241057      -2.41863775      -0.72127247       0.40416402
H       16.44116909       3.27229229       4.54302174      -0.03783915      -0.10007518      -0.28819129      -0.96708053      -0.74586427       0.05946502
H       15.24738497       1.86204157       4.51489047      -0.17509517       0.00536991       0.03871334       0.23671007      -0.52046812      -0.36300552
H       16.13149826       2.38633547       6.02784400      -0.05942136      -0.03461494       0.01618884      -0.27837002      -0.43446422      -0.55270189
H       15.63578852       5.48053701       5.59269323      -0.23529363      -0.13972120      -0.27059645      -0.48404473      -0.41797772       0.04267070
H       13.06132551       6.29474674       6.48281722      -0.13222932      -0.09013081      -0.09714118      -0.07785277       0.33334085       0.23727372
H       12.90307817       2.28771758       5.34260796      -0.00466161       0.01331419      -0.08308178       0.12757176       0.06158081      -0.11113413
C      -12.27052052      15.34150962      50.01022061       0.49180946      -0.95142278      -0.35999629       0.01413846       0.80036527       0.17473310
N      -12.09344287      16.11471470      48.78013397      -0.37866361       0.03363734       0.32183725      -0.14017637      -1.15351689       0.31124035
C      -13.11823225      16.49481027      47.95301176      -0.55645226       0.21091732      -0.37069869       1.23388743       1.96983933      -0.08106779
C      -12.52378057      17.41486715      47.10062361      -0.08265210       0.44192276      -0.51948822      -0.94868779      -0.74849463      -1.37077582
N      -11.18093379      17.44527330      47.29357410       0.26067616       1.00099514      -0.48277867      -0.33881783      -0.84595418       0.75595421
C      -10.91990632      16.63515132      48.32234345      -1.01021778      -0.08358930       0.11376122       0.40613902       1.13635969       0.74602848
H      -12.60684979      -3.19011107      50.82865450      -0.10179114       0.26523833      -0.09524785      -0.04566982       0.82645738       0.18704298
H      -11.25958980      -4.07172147      50.26964136      -0.15247288      -0.10746217      -0.21206320      -0.09069067      -1.05005121       0.23129474
H      -13.09112980      14.61954265      49.96953037       0.15317516       0.15204188      -0.27719012       0.71118891      -0.31304100      -0.72893429
H      -14.14706476      16.35123797      48.18428364       0.10347964       0.02178883       0.31662092      -0.41509953      -0.33892831       0.05183780
H      -12.97159510      17.88342254      46.22929555       0.05488026       0.08509404      -0.24874863       0.05826476       0.06145275       0.32969281
H       -9.95568441      16.74217090      48.87771912       0.17380411       0.00582985      -0.30771880      -1.15544760      -0.65348411      -0.35125005
C       31.43933283      22.46082547       9.52567473       0.04335041      -0.62041393       0.33872859       0.19792214       2.64619231       1.45035958
N       32.93388522      22.52051670       9.55499327       0.45941898      -0.13428625       0.46700290      -0.23699921      -0.65762579      -0.23086774
C       33.72062506      21.81022627       8.64889190      -0.86986044       0.41698584      -0.14497062      -3.23001337      -0.14833194       0.49570853
C       34.93263301      22.30852159       8.74050694       0.75375940      -1.22022489       0.39806096       3.16942167       0.88556403       0.48589462
N       35.07885488      23.24943667       9.78170782      -0.77890471      -0.14426491      -0.11690265      -4.09897423      -1.48699296       0.08409700
C       33.76033278      23.29695872      10.28627224       0.19821461       0.21515421      -0.21640696       2.16771626      -0.46263176      -2.14856076
H       31.02152626      22.99685313       8.64859624       0.24358466       0.15910344      -0.25411126       0.49960762      -0.46572852       0.27618733
H       31.09677749      23.04497444      10.43916129       0.26630658       0.23487263      -0.23044383       0.36917251      -0.77675343      -1.06292188
H       31.06232331      21.46678370       9.62833294      -0.22068273       0.10937414      -0.04640243       0.19566900      -0.70312369      -0.08733065
H       33.23633742      20.97635684       8.16453971       0.00506889       0.09118275       0.02479589       0.53358334      -0.11360710      -0.17798941
H       35.75064052      22.00001121       8.11625508      -0.12943932       0.26893106       0.06094879       0.44085649       0.21536548       0.06045073
H       33.43296993      23.82280906      11.12648291      -0.08051203      -0.18113433       0.13123856      -0.28502932       0.74904454       1.02767217
C       17.69557250      30.03034550       7.57717134      -0.55634079       0.32380329       0.19707649       0.30294296       1.62034726       0.46366617
N       16.28413480      29.95871009       7.65083512      -0.09078730      -0.01695917       0.44486111      -1.93746519      -0.32342088      -0.05548584
C       15.34889817      30.48389413       6.75072853      -0.39998611       0.19086058      -1.26304876       0.41877732      -1.00989866       0.50887549
C       14.18246293      29.80915586       7.03720086      -0.91415904       0.32700573       1.10996943       0.82588977       1.06854880       0.23856200
N       14.33156255      28.99495727       8.11355009       0.89763045       0.70097684      -0.99805098       0.11874743      -0.92623079      -0.04146462
C       15.62469672      29.04363583       8.39155935       0.24759196      -0.90689035      -0.36141641      -0.43237102       0.18979508       0.88474071
H       17.93337576      29.66601791       6.63386600      -0.07697381       0.15020249      -0.01056014       0.96396935      -0.68129379      -1.72967482
H       18.12705683      29.37102484       8.31782348       0.19316237      -0.03093752      -0.03309773       0.24261366       0.34588817       0.23595607
H       18.01965972      31.09632659       7.60957423      -0.11784991      -0.07787070       0.31270319       0.14608616      -0.93109775       0.40586436
H       15.65430295      31.12194638       5.94536839      -0.08380633       0.11434765      -0.07765328       0.04271989       0.30037695      -0.07574892
H       13.26046564      29.90582748       6.55609138       0.01339682       0.03523438       0.07236759      -1.18539238       0.07118781      -0.57686210
H       16.06686858      28.48686174       9.19991112      -0.26809358      -0.08522541      -0.38918581       0.29657975       0.03892189      -0.03822805
C       10.59156751      -3.41220280       5.61004148       0.64321627      -0.74701408       0.77946103       1.13474524       0.01496719       0.91175258
N       11.79693973      -2.58894739       5.41976894       0.38792493       0.02895237       1.17206309      -0.63270015      -0.86929804      -0.06331896
C       12.02755705      -1.59684027       4.47660885       0.99247843      -0.45205172       0.24671707      -0.37067610      -1.41196573       1.41990256
C       13.18870040      -1.05010323       4.81415649      -0.09339495      -0.58618049       0.95111053       2.91182876       2.58688164      -0.96315503
N       13.64697710      -1.65498878       5.95979045      -1.63126123      -0.10086965      -0.16324749       0.13629919       0.51248837      -0.04998440
C       12.79238220      -2.60111474       6.30955577      -0.73033291       0.71675313       0.98367278       0.03911614      -0.46230820       0.33471319
H        9.90663237      -2.77409786       6.14678789      -0.04809099      -0.22775263      -0.06143061      -0.80287254       0.02679454      -0.26301852
H       10.87780087      -4.21920892       6.30429259       0.03238046      -0.04115173       0.15457215      -0.17854112       0.21343985      -0.42280298
H       10.25438461      -3.85480687       4.68870957      -0.00223344      -0.14320178      -0.06177287      -0.27889526       0.20050022      -0.29100055
H       11.29414582      -1.25119627       3.83987401       0.13620602       0.03084564      -0.06144578      -1.24475181       0.33517995      -1.18389213
H       13.75733968      -0.21213709       4.25538092      -0.11939290      -0.02666810      -0.29803943      -1.04083991      -1.78615558       1.20718026
H       12.87739389      -3.27429600       7.18692997      -0.15969577       0.08589892       0.06771516      -0.18787567       0.55484945      -0.84332931
C       14.96307017      -3.85516232      10.06881590      -0.21716414       0.26576522       0.58391255       0.54308140      -0.32323217      -0.92808878