640
Lattice="19.152215 0.0 0.0 0.0 19.152215 0.0 0.0 0.0 19.152215" Properties=species:S:1:pos:R:3:momenta:R:3:forces:R:3 energy=-80020.765625 stress="-0.0006007178453728557 0.002015272853896022 0.0011607990600168705 0.002015272853896022 -0.0033045518212020397 0.0010549027938395739 0.0011607990600168705 0.0010549027938395739 -0.0028309007175266743" pbc="T T T"
C        4.32812887       9.24930915       0.33480569      -0.35316581      -0.11347693      -0.55793144      -1.17628002      -0.86298209       1.20290422
C        3.97752674       9.02194655      -1.11422099       0.54640052      -0.95701223      -0.11157946       0.61504048      -0.26780003      -1.61187816
O        3.73379765       9.99764490      -1.86983876       0.98979316      -0.27765309       0.28494321      -0.15496436      -0.25387943       0.67454398
O        4.06793211       7.80463692      -1.59521144      -0.06275230      -1.17307086      -0.23555759      -0.27871785       0.56134331       1.23746562
H        2.95549191       6.88325268      -0.90496250       0.22080531       0.09744974      -0.04916178       1.08392024       0.20177090      -0.82510781
H        5.43019459       9.25703868       0.43845984      -0.08412082      -0.04218057      -0.18400414      -0.66642320       0.02377832       0.14897330
H        3.83641835       8.48526410       1.03491237       0.11704008      -0.17058477       0.33308487       1.09519982       0.48044378      -1.18252921
H        3.86043251      10.16367364       0.69853276       0.01059185       0.04996193      -0.07867636       0.50667959       0.38471365      -0.29022753
C       22.50417430       0.63816005      18.44961774       0.42010861      -0.39638011       0.51360685       0.83212268      -0.25848240      -0.85787237
C       22.96155969      -0.32070089      17.35662501      -0.09816041      -0.20246025       0.43429039       0.47720698       0.29590708       1.09280145
O       24.11814697      -0.12876319      16.82771644      -1.65287783       0.29583246      -0.99873631      -0.22417605       0.03006969      -0.07376748
O       22.26605949      -1.32791163      17.15414867      -0.21911905       0.51241891      -0.22844059      -0.57739210      -1.03021419      -0.54008096
H       27.56789448       9.59536821       6.47320572      -0.05266985       0.17098586      -0.25031942      -0.23060328      -0.45744583       0.76060003
H       21.45977740       0.53642754      18.66195207      -0.00468883      -0.05457274       0.19579714      -0.37596133      -0.25639185       0.41643357
H       22.69466430       1.65529742      18.18210608      -0.07231611      -0.12113413      -0.05237576       0.22337216       0.76908970      -0.35942289
H       23.15133504       0.43089525      19.29278486       0.07548817      -0.04925090      -0.10487248      -0.21232887      -0.02948214       0.51922262
C        8.38157636      -0.51488399      -6.25294491      -0.00196107      -0.39385555      -0.43884538      -0.68284768       0.08501852      -0.22005478
C        9.66920948       0.17191033      -6.29395492      -0.32254775      -0.48321202       0.36320508       2.17103934       1.91453719      -0.08828294
O       10.66132295      -0.47840244      -5.59446053       1.24484732      -0.19844568      -0.41755673      -1.47797501      -0.16131645      -0.75886303
O        9.89828722       1.26821658      -6.84576355      -1.36575496       0.38429905      -1.26061491      -0.48158875      -1.56744838       0.61271602
H        8.67608370      10.68786767      -2.95591415       0.16851360      -0.19859753       0.12300630      -0.04099301       0.05986550      -0.21404731
H        7.85584471      -0.29032481      -5.33635145       0.07402308       0.17499606       0.02294811      -0.26640308       0.28275877       0.20218021
H        8.53649785      -1.55724986      -6.22789974       0.16269274      -0.12405796      -0.15945277       0.25097269      -1.29788756       0.13214332
H        7.75424095      -0.30690355      -7.11748096      -0.15117150      -0.13434044       0.00107269       0.08081433       0.41248488       0.09044676
C       26.11178086      35.63769891      17.16386197      -0.36794462       0.42555870      -0.57031952       0.88224638      -1.84116113       1.31346643
C       25.80433405      35.50677574      15.71444413       0.54110152       0.53950205      -0.10434511      -2.40915394       0.84537429       0.19309224
O       24.73653066      36.25608626      15.33237090       0.01210056       0.01225683      -0.67764848       0.56953883       0.11890590       0.11962140
O       26.26787581      34.69867964      14.93459601       0.47397199      -1.08971836       0.59764803       0.83865786      -0.29411924      -0.32059205
H       17.40878873      27.15439431      14.18740888      -0.04466391      -0.02884291       0.01245946       0.19619954      -1.05065298      -0.63981193
H       27.06317544      35.08160927      17.42127110      -0.17115459      -0.00801232      -0.28384728      -0.89005244       0.61572838      -0.39734915
H       25.29189548      15.96041004      17.76068458       0.24220773       0.04641632       0.03103155       0.92045105       0.90376067      -0.65644908
H       26.22738855      17.51554175      17.48197604       0.06787027      -0.28902610       0.05620895      -0.17704840       0.04572318       0.05907030
C       25.45714252       2.34741019      25.34653569       0.13357721       0.71033558      -0.17566457      -1.05011988       1.59174454       2.33692217
C       26.21060909       3.60515752      25.07797894      -0.25440108      -0.07144742       0.56222265       1.89756417       1.83826399       1.04357982
O       26.49434743       4.08665581      23.98214743       0.58110178      -0.76857098       0.32339548      -0.69137067      -0.80819285      -0.07307124
O       26.71887610       4.26380959      26.20907515       0.50124764       0.68705733       0.92317748      -0.59269679      -0.91734648      -1.93114233
H       15.40180547       4.54790200      27.32555526      -0.24665204       0.03491910      -0.01288573      -0.39290255      -0.23577523       0.09174763
H       26.13109259       1.56145855      25.70372528       0.01631435      -0.28168491      -0.05554453      -0.19448805       0.00540289      -0.17563368
H       24.87937654       2.10637796      24.48788309       0.12135143      -0.34789839       0.14206391      -0.27834547      -0.55852056      -0.72073025
H       24.71199571       2.63038180      26.19700665      -0.04314332      -0.16668303       0.23328864       1.26516533      -0.78066492      -1.21848404
C       -3.35941788      -6.32597513      15.72132980      -0.43506126       0.92724098       0.46413036      -2.22953320       0.13966751       2.15111113
C       -4.34895523      -5.72359428      14.80929709      -0.01543773      -0.19941415       0.77293924       0.27138156      -0.88184220      -1.22012401
O       -4.05123856      -4.60961782      14.32334880       0.09338243      -0.25981302       0.50007390      -0.25272334       1.21776295      -0.79560196
O       -5.37692943      -6.43368986      14.46436244      -0.70691213       0.61304114      -0.41346261       0.40277469       0.71338832       0.11001930
H       -6.71289484      -5.45544709      14.16835719      -0.05148876      -0.20762029       0.02000515       0.45206785      -0.09751713      -0.19209106
H       -3.57491423      -5.83900598      16.69418760       0.14635443      -0.08267991       0.25635740      -0.22464600      -0.50833410      -0.01324824
H       -2.36282036      -6.06790076      15.63971763      -0.09204443       0.08975437       0.14724180       2.00333977       0.41986573      -1.08620727
H       -3.54886669      -7.37178387      15.81713473       0.04338584      -0.29812571      -0.24225191       0.26987445      -0.65946877       0.19536665
C       20.85905381       4.05973669       0.13900203      -0.30116278      -0.24582276       1.01536835       1.77615571       0.21922576       1.01735568
C       21.77315491       4.95577552      -0.68647417       0.61743807      -0.03032779       0.09692106      -2.53379297       0.33333528      -0.51913822
O       22.44006946       4.59258394      -1.62238645      -0.13621266       0.14327361      -1.06707471       1.42687333      -0.66877759      -0.66589987
O       21.54119305       6.24770135      -0.40638393      -1.51909909       0.14979672      -0.28000258      -0.66040295      -0.45369154       1.40137422
H       16.00196707       2.70050561       1.20959530      -0.10073726       0.15598976      -0.31042038      -0.32533765       0.15031409      -0.41534829
H       20.50159959       3.14054209      -0.33131877       0.04744791      -0.12825085       0.01854537       0.50901651       0.15580098      -0.06067213
H       20.02404345       4.62904312       0.49779022       0.10481516       0.17531684       0.00830282      -0.29077762      -0.03966552       0.03982663
H       21.50628186       3.84997085       1.04448943       0.01648228       0.03585910      -0.01493985      -1.06571305      -0.35492119      -0.63731045
C        1.64740803       7.62741615      15.18306938       0.29977984       0.96820378       0.30784865      -0.88810015       1.87606382       0.53378451
C        0.72782275       8.80152521      14.72903258       0.65762123       0.84259642      -0.13209116      -0.90783626       0.01870573      -0.07231179
O        1.26740442       9.82325872      14.18001212      -1.24380124      -1.08677959      -0.85085427       0.01205736      -0.46026343      -0.04828179
O       18.58926623       8.72487751      14.88737892      -0.30277941       0.67020151      -1.65780275       1.70732498       0.07138991      -0.02658987
H       -3.49691343      -3.72035789       7.51410060       0.17025375      -0.09083553       0.15621876       0.47649443       0.43872693       0.90744102
H        2.30453685       7.99570789      16.05287481       0.04645528      -0.04506359      -0.07704952      -1.15797746      -0.91383612      -1.05556941
H        2.30354906       7.46649470      14.34562258       0.05031567      -0.23647619      -0.26808093       0.35051090      -0.41209090      -0.26997605
H        0.95464690       6.78614960      15.34400936      -0.18564980       0.04291154      -0.14414361       0.92625862       0.19221503       0.30335730
C      -21.05697858       3.02832085      -6.56996104       0.17739494      -0.46759686       0.70151906       1.13326716      -0.53315520      -0.95635819
C      -19.55694919       2.74060407      -6.55448264       0.49227874       0.54460184      -0.16904686      -0.20748413       2.18892860       0.59487957
O      -18.83078818       3.75872404      -6.13522251       0.47624605       0.04067198      -1.11129990      -0.97903788      -0.05117345       0.10909271
O      -19.09032942      20.81156294      -6.86008014      -0.36136873      -0.31195778       0.21185404       0.34436744      -1.65757036      -0.78742164
H      -17.60039317      22.68697484      -5.96512545      -0.09222492       0.54315325      -0.19057650      -0.83205980      -0.43928787      -0.71899533
H      -21.45426593       2.47598621      -5.73975373      -0.01654606       0.04469172      -0.05797072      -0.56397820       0.17795596       0.33815831
H      -21.56934636       2.72912169      -7.49445485       0.05024881      -0.07890152      -0.13808217       0.39173603      -0.28453431       0.19466963
H      -21.13090049       4.08813805      -6.52599515       0.25008833       0.02068602       0.16714147      -0.44073749       0.75944471       0.55360848
C       -3.03143865      11.74654804       0.36790229      -0.02086225       0.26309565       0.95704796       1.67036796      -1.21743953       1.24768090
C       16.26480943      10.27895028       0.27775212      -0.83479838       0.11179857       0.75939103       1.84360623      -0.87433571      -0.58141220
O       16.69263284       9.97602419      -0.98855975      -0.43184293       0.42117416       1.06081605      -0.66310412      -1.22634506       1.15349722
O       -2.89370667       9.46894007       1.21616655      -1.21477956      -1.95694719       0.14213728      -0.52911115       0.85865420      -1.07472420
H       13.42737012       8.38781985      -8.92371908       0.04798750       0.11821035       0.06250896       0.82969761       0.02926081       0.07541363
H       -3.06662361      11.87865353       1.43218882       0.21223662       0.08152467       0.29215217      -0.37933862       0.99000055       0.28595126
H       -3.85428753      12.00882458      -0.20524542       0.21150944       0.12737712       0.33342763      -1.65633655       0.94215572      -0.77340901
H       -2.11530752      12.15597129      -0.07065324      -0.15548219       0.20049316      -0.10670444      -0.32395858       0.27126968       0.16300806
C       32.90562226      23.11837845      -1.93253616      -0.20418006      -0.14328724      -0.20412476      -0.07165392      -0.38161570      -1.08118582
C       31.53494414      23.24625765      -1.36693052      -0.22102657       0.08831515      -0.53802069       1.31255889       0.96943307      -0.04721040
O       31.10531059      24.48473512      -1.33072108       0.96687635       0.58487595      -1.25306301       0.03215718       0.39521521      -0.13754925
O       30.91951165      22.28941266      -0.95924438      -0.70133956      -0.41281671      -0.06641652      -1.53086782      -1.61796641       0.68853724
H       16.90671377       8.97648592      -0.93048167       0.08262585      -0.01628170      -0.06577388      -0.09933893       0.05763268      -0.23556314
H       32.83590556      23.61864640      -2.90198765      -0.09018542       0.04968416      -0.24372947       0.55264062      -0.00391030      -0.06029847
H       33.26225377      22.09348005      -2.06623935      -0.05948637      -0.32047302       0.06670189      -0.52696407       0.01910499      -0.04674244
H       33.65663166      23.58616383      -1.33184628      -0.23440117       0.02662241      -0.27366970       0.23610529       0.68504637       0.47563040
C       -4.47767625      -2.14633187      11.85687759      -0.56634632       0.24756847       0.21175080       0.28116432       0.11697154      -2.35428905
C       -5.17618834      -3.35346974      11.28723518      -1.00239206       1.34131320      -0.62587798       1.66087663       0.80344415       1.75057137
O       -5.83867444      -3.38588608      -8.85996139       1.42103525       1.27451243      -0.44258580      -1.67743278       0.50219595      -2.25517869
O       -4.93750875      -4.46035799      -7.21537710      -0.45938698      -0.86290337      -0.71601427       0.77334595      -1.71516287       1.33212411
H       14.79163494       1.41364751      14.64916341       0.16190572       0.02373442       0.05928686       0.13337366      -1.44390917       1.68261218
H       -3.53674363      -2.04266993      11.22128462      -0.05850515       0.16212977      -0.11133831      -0.96866024       0.00208780       1.05598044
H       -4.30252667      -2.31583848      12.88341992       0.00682777       0.15798787      -0.23502242       0.57795238       0.14405023       1.10840940
H       -5.09218221      -1.26538492      11.68350320      -0.08686799       0.18542282       0.06081157       0.00240332       0.10621261       0.09729568
C       -8.60705345      -3.34959310      15.56689420       0.83392558      -0.72192585       0.26824742      -1.78989577       0.27046296       1.24857306
C       -7.64644642      -4.44377605      15.41991832      -0.10618630      -0.42581255       0.42035785       0.79943746      -0.66470146       2.03560972
O       -7.39742082      -4.72914280      14.14717817       0.11907645       1.01243450      -0.48233915       0.18659741      -0.32523292       0.02906287
O       -7.15854821      -5.05615468      16.41054902      -0.58824455       0.10358163       0.52187728      -0.56941164       1.02869534      -2.04116392
H       -4.42264644      -4.41148218      12.87062034       0.04280414       0.32253273      -0.23187114      -0.86084342       0.12487563      -0.36401355
H       -8.85991474      -3.17250421      16.63155875       0.12073175       0.24036468      -0.01383625       0.39874303      -0.36106849      -0.52231896
H       -9.55804077      -3.70804449      15.13427582      -0.08666334      -0.00200823       0.14312232       0.28309739       0.37242287      -0.08204360
H       -8.37285363      -2.36475320      15.19021861       0.02169470      -0.07140925      -0.17955493       0.42144343      -0.08698536      -0.62505877
C       -2.12228527       0.83217161      21.91375937      -0.55339504       1.16692322       0.66194660       0.80635792       0.05326153      -2.09150410
C       -1.21267748       1.95469140      21.35071719      -0.25131421      -0.28872058      -0.29138904       0.03007856      -1.42474914       1.74808776
O       -1.64464538      21.89630818      20.50640388       0.07807521      -0.70327956      -0.47229958      -0.69443041       0.94514990      -1.35693288
O       -0.05362135       2.05591411      21.89132359      -0.11984545       0.86310374      -0.49523475      -0.29350626       0.45151758      -0.60167927
H       19.45756445      10.61801684      13.44524966      -0.41241022       0.21269702      -0.10863546      -0.48072225       0.41155320       0.19603488
H       -3.02472708      19.84316930      21.29607242       0.04786387       0.18049404      -0.00068586       0.28751272       0.33174753       0.33553934
H       -2.35781386       1.20887749      22.88058658       0.00343431      -0.07641220       0.08775956      -0.35030434      -0.32447112       1.03318739
H       -1.54405170      -0.10094180      21.85736249      -0.15686218       0.12997641       0.11881613      -0.25902689       0.14322798       0.68576312
C        8.35568023      12.35907062       3.69509334       0.19349585       1.16074312      -0.09647284       1.67415571      -1.23533607       0.08895856
C        9.35987740      13.44477111       3.29443000      -0.09121388      -1.40088961       0.16651082       0.26823810      -2.01254630      -1.75978267
O        9.56158980      14.47670516      23.04075419       0.15235690      -0.23322880      -1.28978986      -0.12111276       1.16821492       0.79816747
O       10.11463184      13.13419635       2.19930568       0.76791700       0.47304429       1.73635493      -0.87194920       0.18944705       0.53598064
H       11.53830191      -0.05713698      -5.78376837      -0.14985521      -0.07303742      -0.09070287       0.11658049       0.41123754       0.13357015
H        7.38367140      12.42243295       3.26598834       0.11799226      -0.19575817       0.08857532      -0.77208763       0.63578218      -0.45976758
H        8.24699638      12.31607199      23.95207508      -0.16846271      -0.10518907       0.06984868       0.07751504      -0.17276847      -0.77117682
H        8.74127633      11.36252280       3.27429767      -0.22419279      -0.25580305       0.06960541      -0.45082799       1.31919456       0.95618284
C        1.15309199      34.18100887       8.51474636       0.38568615      -0.68036239      -0.57731154      -0.09652056       0.67190647       1.60964179
C        0.90482749      32.69396048       8.45108916       0.01426720       0.04382197       0.78849025      -1.10575032       0.52655387      -1.21559978
O        0.41234255      32.21918243       7.39094665       0.91944188      -0.75775946       0.98893927       0.96539128      -0.09361011       1.38590097
O        1.10130677      32.06340904       9.56057320      -0.70117114      -0.57705926       0.82716604       0.36757860      -0.36856151      -0.07019579
H        0.72583514      30.87978499       9.52348942      -0.11386189       0.24872016      -0.06247517      -0.69493496       0.02999872       0.13498569
H        0.43216687      34.76452784       7.94697149       0.19541251       0.02481876      -0.05387318       0.30746317      -0.20240486      -0.55726236
H        2.19196419      34.51257685       8.39382126       0.16665492       0.10533029      -0.06622843      -0.13645022      -0.32901546      -0.57381976
H        0.94486160      34.50662320       9.54814510      -0.08935447       0.04013099       0.09204669       0.01765779      -0.26121640      -0.13689037
C       12.74446158       6.76838059       4.98842603       0.48548173       0.40842776       0.32807095       0.55381393       0.06189505       0.32658342
N       11.62805118       6.48698785       5.89664968       0.21791472       0.47336723      -1.19317961       3.01900601      -0.13978308      -2.53938150
C       11.19646954       7.32782937       6.83289117      -0.73272667       0.00111773       0.37845552      -1.36496687       0.28606761       1.02204192
C        9.91452655       6.89900803       7.06596050      -0.35987288       0.09425026       0.32742134      -0.19083881       1.04240537       1.00164342
N        9.65356549       5.81845444       6.32432264      -0.04270447       0.74718509      -0.03794010      -2.43766642      -1.17361987       0.08296843
C       10.70073594       5.57327666       5.60106932       0.29300934      -0.18980190       0.19997247       0.24280858      -0.68612468       0.05212575
H       13.10102539       7.79741341       5.15780726       0.12931599      -0.18740623       0.08205676      -0.07819775      -0.41185305       0.05696099
H       12.40125188       6.69772008       3.95022393      -0.32971516       0.00226197      -0.10515591       0.10728593      -0.14277899       0.23542053
H       13.56538947       6.05290489       5.20307568       0.13306192       0.02333416       0.37889532      -0.42125329       0.37308782      -0.33178973
H       11.76388566       8.13362631       7.23602669      -0.07311705      -0.00731702      -0.32555926       0.40214041       0.15746790       0.11155148
H        9.12677599       7.33512281       7.63633555      -0.09297887      -0.19455141       0.08858444      -0.07405615       0.31560495       0.31076205
H       10.85625664       4.68422817       5.01338081       0.16133877       0.20485739       0.22547138       0.18470174       0.12906605      -0.10456483
C      -10.79898167      15.76114946      49.22506528      -0.48415857      -0.18060866      -0.34917142      -1.21305799      -1.13100803      -0.25243402
N      -10.26945715      16.86568041      48.44624667      -0.05659444      -0.21717615      -0.29199567      -0.94355261      -0.51203525      -0.11851272
C       -9.01975439      17.42808137      48.49210262       0.36665130      -0.07341739      -0.82002285      -0.34891051      -0.27482557       0.64454097
C       -8.91696533      18.25309545      47.40793105       0.16898704       0.18812346       0.18092152       0.10352391      -0.66483337       0.54305989
N      -10.10250712      18.20220987      46.75554273      -0.04022876      -0.12028743       0.63244668      -0.90013015       0.69439614      -1.89696670
C      -10.91914093      17.33176730      47.32980206      -0.30007754       0.45623786       0.05684384       1.08767819       0.77736181       1.04173136
H      -11.81688593      -3.15685338      49.69755217       0.14247807      -0.13503460      -0.04628125       1.64550257      -0.09403020      -0.75940728
H      -10.12009313      -3.79379204      49.97591497      -0.00912403       0.20387589      -0.15085988       0.17459685       0.58683783       0.10682511
H      -10.91464305      14.91774337      48.50630260      -0.00179859      -0.19813206      -0.35609071      -0.30876720       0.37490398       0.53887326
H       -8.40693884      17.24240354      49.34961908      -0.16151423       0.07929127       0.01105919       0.39703321      -0.00788122       0.05668093
H       -8.00004082      18.67999245      47.02371747      -0.00369526       0.10067619      -0.34771196      -0.35152510       0.25183502      -0.12564260
H      -11.96012670      17.14539707      47.04547245       0.04976085       0.07174348      -0.20587242       0.57977617      -0.12438625       0.27841997
C       29.88375295      21.82441090       8.28653272       1.14316121      -1.01690091      -0.40845683      -2.61641598       2.23055267       1.06363082
N       31.19827761      22.11142363       7.87311163      -0.82343517       0.44876708      -0.03938595       1.91578627       0.53896141      -0.88105547
C       31.57905563      21.90302558       6.57544034      -0.03838966       0.00051863       0.59753844       1.52504754      -0.69723135      -0.03367472
C       32.92384467      22.18389215       6.49471511       0.01400213      -0.48470752       0.90892217      -0.72549593       1.39840519       0.24784264
N       33.29828580      22.80981673       7.65998940      -0.15285944      -0.91890469       0.30431387       0.14150468      -0.50279558       0.70470405
C       32.28877104      22.68890659       8.49933593       0.01050469      -0.46925866      -0.11877240      -1.47070110      -0.16309622       0.17188776
H       29.72314505      22.15702448       9.34054113       0.22344210       0.07774205       0.09589527       0.26155007      -0.62457573      -0.57066596
H       29.58091435      20.80723478       8.12339286       0.00102427       0.12447826       0.30338743       0.18830025      -0.47982869       0.02528998
H       29.13790807      22.47634667       7.71036706       0.03976468      -0.04673591       0.02369167       1.03715646      -0.84182155       0.52958196
H       30.91110175      21.53124148       5.84852611       0.03524402      -0.02376212      -0.27625386      -0.66327792      -0.33917153      -0.49013326
H       33.63539646      22.18055039       5.70510592       0.27219888      -0.12200766       0.00194221       0.12692523      -0.39127463      -0.73960143
H       32.24528201      23.00319334       9.53520386       0.14250092       0.00032062       0.17017420       0.15297611       0.04980886      -0.13188894
C       11.74178958      32.25223952       9.69802826      -0.49496354       0.41440634      -0.23407218       0.43937919       0.01521131       0.71819669
N       12.33085614      31.02281858      10.34711915       0.33104164      -0.46203714       0.08269570      -0.69589406       2.90909600       0.77120012
C       13.05609307      30.96683717      11.56782748      -0.52244331      -0.01603910       0.43591444      -0.44307092      -1.21931958      -1.85479498
C       13.45905348      29.66145197      11.59371855       0.68348057       0.39784422       0.60917414       0.78891158      -1.85015666       0.60770583
N       13.08188615      28.96735477      10.45892176       0.42302244      -0.48708244       0.25906395      -1.12717700       0.83352530       0.00796965
C       12.32703744      29.85232324       9.76186984      -0.36190963       0.30331336       0.24846339       1.18018234      -2.52604175      -0.91101092
H       11.83543096      33.08140074      10.43426601      -0.34874064      -0.19822595       0.09559217      -0.27912602      -0.60917115      -0.35100374
H       10.65578024      32.05818353       9.43555077      -0.37273612      -0.03191234      -0.44836487       1.52152920       0.34322464       0.03327042
H       12.42210638      32.55752639       8.87166773       0.03454572       0.09287064       0.17625763      -1.01979125      -0.38613483       0.17707616
H       13.43623683      31.81841156      12.08385601       0.06507915      -0.14922603       0.09318400      -0.25652432       0.43427399       0.15039387
H       13.95272456      29.02058606      12.34757976      -0.13596525      -0.07525648       0.11796092      -0.20184453       1.08909822      -0.11823489
H       11.94056002      29.61317646       8.76437734       0.27802439       0.04679334      -0.10500650      -0.05990272       0.47863299       0.52171797
C       11.08349113      -3.54226886       6.59037903      -0.30156379      -0.46382312      -0.02668829       0.00224578      -1.35191596       0.34785172
N       12.16106184      -2.65900354       6.31272288       0.21572990      -0.59443201       0.30697723       0.92344820      -0.36612323       2.93691349
C       12.66222820      -2.24334740       5.14743712      -1.18947384      -0.58307462      -0.20501056      -0.36605731       1.01899886      -2.14089012
C       13.59237460      -1.26248091       5.43105625       0.03602732      -0.20993449      -0.20572852       0.00097233      -0.51377058      -1.25973976
N       13.82510472      -1.38487470       6.74213641      -0.58640542       0.67457942       0.02150928       0.36789870       0.66945434       1.27475905
C       12.91943061      -2.18266272       7.32109270       0.48040912       0.27819205      -0.31699609       1.01126754       1.04358983      -1.75418067
H       10.37261665      -3.36580964       5.82821253       0.13464912       0.26044067       0.01668151      -1.08547723      -0.34895936      -0.53759354
H       10.69509058      -3.41461302       7.59447862       0.24277455       0.04226955       0.08732306      -0.20744833       0.63741648       0.03549439
H       11.45761270      -4.57091136       6.61027924       0.31425705       0.07933044      -0.15814890      -0.12112142       0.04742181      -0.55876315
H       12.31607832      -2.70380685       4.22616109      -0.01075245      -0.20725740       0.04910652       0.19744448       0.30492270       0.18600389
H       14.06367842      -0.46251464       4.84966625      -0.00690446      -0.09341989       0.06047832      -0.39337832      -0.63913262       0.14797017
H       12.94039387      -2.36671394       8.35520399       0.09824434       0.18521335      -0.06641954      -0.39519203      -0.64877009       0.98028117
C       17.98820005      -4.40644182      11.96269345       0.10499478      -0.36578624      -0.48058737       1.70297217      -1.21660364      -1.26474833