640
Lattice="19.152215 0.0 0.0 0.0 19.152215 0.0 0.0 0.0 19.152215" Properties=species:S:1:pos:R:3:momenta:R:3:forces:R:3 energy=-80136.0234375 stress="-0.01705165021121502 0.0004637708480004221 0.00031217103241942823 0.0004637708480004221 -0.019458647817373276 -9.357298404211178e-05 0.00031217103241942823 -9.357298404211178e-05 -0.016325179487466812" pbc="T T T"
C       12.91831836       6.49805266      17.36662854       0.64582100       0.36597539       0.21168488      -1.13766551       1.56558514      -1.52517581
C       14.14945738       6.97271643      18.03362327      -1.12483592       0.72865575      -0.78528026       1.75706398       0.84823656       0.54901582
O       15.14939001       6.02435812      18.25140846      -0.22689157       0.22541218      -0.28375577      -0.50193602       0.63833332       0.21358269
O       14.35740182       8.15656059      18.39401395      -0.63191576      -0.10102677      -0.20423414      -0.34777963      -2.16366816      -0.47562361
H       14.84459420       5.10905311      17.99905023       0.02571759      -0.15013874       0.20636987      -0.11169416       0.14171784      -0.48437840
H       12.18581264       6.18154365      18.09764053       0.22918293      -0.18647777       0.01391571      -0.27077985      -0.46059600       0.35729092
H       12.95180386       5.82320726      16.48763195       0.04179016      -0.13031033      -0.23396462       0.67356497      -0.24901631       0.84177423
H       12.46333620       7.41805017      16.92287240       0.31790456       0.21004974      -0.10743377       0.08896217      -0.31637242       0.31825995
C        9.87357275      13.53553080      17.34634213      -0.47026361       0.82604280       0.67503378      -0.55822194       1.74190426       0.71576655
C       11.18804507      13.41667869      16.60940246       0.44022580       0.70000002       0.39586774      -1.37903464       1.58779216       1.65113068
O       12.12098043      14.37734952      16.77694803       0.77780018       0.24651082      -0.25997600       0.77597189      -0.90330219      -0.76983285
O       11.36300238      12.43759426      15.92701946       0.47007556      -0.34363630      -0.15546618       1.05292904      -1.24658442      -1.59012914
H       15.56453579      13.30243547       1.81431599       0.29973871       0.06335326       0.18920406      -0.17849615       0.47273126       0.01628745
H        9.46282894      12.52552175      17.39416900       0.37809505      -0.05196089       0.23003290      -0.04235666       0.24987993       0.27874646
H        9.13785100      14.19953588      16.78884420      -0.12079787      -0.03673306      -0.30794971       0.85235184      -0.61593497       0.25973755
H        9.97008723      14.04681198      18.36717244       0.19584980      -0.17353954      -0.24527782      -0.05167672      -0.94344127      -1.09977162
C       -1.23111794       6.87541583       8.42750796      -1.18920387       0.41047057       0.14102966       0.49633682       0.04258446      -1.59182250
C       -1.12922813       6.69625688       6.91205927       0.06750916      -0.76592724       0.20245163       0.71092415       0.08178082      -1.07928729
O       -1.80918986       5.68904576       6.36310154       0.05313608      -0.72595198      -0.06047742      -0.29521203       0.01141237       0.79230309
O       -0.47643204       7.44975577       6.14293133       0.49675620      -0.56229144      -0.18445190      -0.58261907      -0.35485575       1.05874491
H        3.39856757      18.76748395       7.47446742       0.02803111      -0.00221917      -0.04559395      -1.59407520       0.64407039       0.32918334
H       -1.03698350       5.97193583       9.00419440       0.05263064       0.09935426      -0.02439013      -0.31306717      -0.23558135      -0.11695923
H       -2.24800710       7.23180706       8.52302896      -0.00596242      -0.42402975      -0.17530439      -0.49415526       0.22579885       0.95349950
H       -0.49129700       7.60898956       8.72703315       0.28210636       0.30306930       0.23590133       0.01588934       0.42154503       0.12593815
C        9.47033963      15.29437338       2.90628285       0.25359306       0.02681514       0.41737210       0.69955873       2.57065964       2.09783697
C        8.76132103      14.68437244       1.79363925      -0.48704080       0.18548586       0.14802503      -0.76338500       0.24998027      -1.52404928
O        8.85979290      13.51261009       1.48138063       0.51291454      -0.58433926       1.35789911      -0.14106545      -1.32329249       0.03576469
O        8.06322205      15.58487335       1.04564187       0.99767022      -0.25734192      -0.02460118      -0.27231827      -0.35153592       0.13547322
H        7.44678312      15.10521977       0.32006149       0.21517060       0.19347434      -0.23479011       0.23268302       0.21388799       0.47332290
H        8.80466207      15.90522696       3.63614534      -0.26896749      -0.10335848       0.12862828       0.70072693      -1.24096990      -1.08052218
H       10.06638706      -3.02681022       2.44753901      -0.20494457      -0.05826385      -0.00630568       0.08934852      -0.50481880       0.37922972
H       10.14909403      -4.52501975       3.47786875      -0.25869235      -0.01312257      -0.10041093      -0.48403925       0.21703951      -0.50220507
C       10.47640021      15.51174444       9.49577093      -0.01195442       0.52916480       0.12055492      -0.09783483      -0.21299291       0.00333542
C        9.68689309      16.49881075      10.33292093       0.04968462       0.95714504      -0.47199645      -1.20055449      -1.55931282       2.19505906
O        9.42867863      17.67355595       9.80650232      -0.42569843       0.14882651       0.25965093      -0.35895050       1.21799755       0.01134443
O        9.19135324      16.24745718      11.45635658       0.21067842       0.78493830      -1.02471765       0.65298909      -0.12496528      -1.71575904
H       19.64833294      15.97812294      15.85123636      -0.07666124       0.01051477      -0.07967293       1.03053272       0.27334237       0.42637333
H        9.76226782      15.09182322       8.76929805       0.09123201      -0.07370225      -0.19496642       0.16989061       0.17532590      -0.31072474
H       10.89692783      14.59165133      10.00464476      -0.21383256       0.18525093      -0.15446736      -0.26220381       1.46477079      -0.03547418
H       11.20972223      16.16528614       8.99391038      -0.00096606      -0.40304843      -0.05762138       0.25309804      -0.73772097      -0.27573466
C       10.38995044      14.44044216      13.56920323      -0.22942356      -0.14966243       0.37643320      -0.74887729       0.01099843      -1.05750203
C        9.78014199      15.63733716      14.24478244      -0.03672921      -0.34182592       1.66340523      -0.86110288       0.62134570       1.47755456
O       10.46185045      16.81346395      14.16475069      -0.37614226       0.58546391       0.22380145       0.35165974      -0.49884176      -0.17110458
O        8.74041029      15.60731164      14.94165999      -0.00171901      -0.13603741      -0.54258022       1.17637610      -0.19108677      -1.19982421
H       11.38878783      16.61922802      13.77105526       0.03292958       0.08657845       0.00408410      -0.08577025       0.29413885       0.13013420
H        9.72946962      13.60242177      13.77372455       0.04623724       0.06548425       0.10744038      -0.62360597      -0.23222409      -0.58309090
H       11.22788050      14.06453438      14.10981038       0.04800607       0.14827492       0.14191912       1.30749691       0.20157421       0.33122081
H       10.62113183      14.59717385      12.46704423      -0.00036313      -0.01400199       0.17501598      -0.41826022      -0.26644665       1.49876630
C       20.89110703      -4.66504550      -0.59653613      -0.56532484       0.20504134       1.47446735       1.15301549       0.76514459       0.92044449
C       20.09309512      -4.31788907      -1.78036051       0.21762826       0.38395751       0.56381490      -2.45244670      -2.75894284      -1.79307532
O       19.07967339      -5.03735672      -2.12422898      -0.10952251       0.06611574      -0.19571071       1.57446194       1.25907242       0.98626876
O       20.52696452      -3.35022012      -2.53333437       0.69139090       0.62298040      -0.97026825      -1.32031453       1.08472013      -1.28517914
H       16.27391973       0.56162573      -1.69878924      -0.04282713       0.08957615      -0.21563084      -0.02209771      -0.08589582       0.13501325
H       20.57461939      -3.95509186       0.19071810       0.08682399      -0.12605349      -0.05397648       0.19623977      -0.20074946       0.16659737
H       21.98537331      -4.52258702      -0.74977673       0.27814835       0.19498790       0.22293031      -0.52795756       0.09112822      -0.01695747
H       20.71712986      -5.67787742      -0.26237082      -0.08705475      -0.25904927      -0.05460240      -0.28281456      -0.30540192       0.13560778
C      -11.40732846      23.17941777       5.22585977       1.16364850      -0.25556943       0.81936262      -0.90856290       2.33317566       1.41270447
C      -10.05045184      23.63743866       5.76909622      -0.04578243       0.54148273       0.03805525       1.07586277      -0.96500957       0.79187268
O       -9.40704209      23.09045843       6.68469612       0.98747882       0.55716658       0.31833268      -1.31197453      -0.35138014      -0.19878042
O        9.74002839      24.64442724       5.17910454       0.75184926      -0.90163339      -0.27468489      -0.87425643       1.51928020      -2.04051113
H        7.73779523      11.05110617      -7.01084368      -0.24786273       0.27104888       0.01350930      -1.08385408       0.47040027      -0.16029286
H      -11.53449929      22.12958533       5.33125725       0.30184629       0.25726533       0.21382272      -0.09110846      -1.18127275       0.00287817
H      -11.62950022      23.55575234       4.21821940      -0.19526740      -0.06073215      -0.05186380       0.25740302      -0.22935109       0.10090310
H      -12.21922926      23.66745773       5.90345488       0.40851863      -0.02307519       0.50174128       1.13180625      -0.69792426      -0.89849114
C        4.46237978      -2.89097931      -4.28449259       0.83412038       0.29712021       0.55465209      -1.08625209      -1.23793292      -0.30314052
C        3.66571112      -2.44367565      -5.46778103      -0.12738421      -0.66838562       1.07612969       1.56395984      -0.96347404      -1.37403440
O        3.91129745      -1.17993188      -5.69034902       0.44830928      -0.15718807       0.28579578      -0.45937860       1.98358011       0.19616687
O        3.08647959      15.98607857      -6.29245558       0.38733105      -1.07370263       0.28866137      -0.57339728      -0.14016286       0.63051689
H      -10.00942593      25.10191439       4.42677470       0.02344029       0.14909076       0.16908478       0.29651088      -0.04173101       1.04185319
H        4.56941322      -3.95641926      -4.30844221      -0.02903536       0.12805005       0.06252582       0.24471289      -0.85920835      -0.17912143
H        3.81475055      -2.73351471      -3.45704491       0.21022787       0.11692843      -0.11973663      -0.67306745       0.36955267       1.41585350
H        5.40417387      -2.42989372      -4.10703533       0.05681122       0.00270720      -0.34219813       0.82793015       0.73434997      -0.11445199
C       -4.17518843       6.37299954      13.73933778      -0.86540047      -0.06772016       0.85017935      -1.19462776       0.04699228       0.16140208
C       14.64826108       5.88101376      12.34919091       1.07309055       0.06677473       0.25860762      -0.26467067       2.10931253       0.56805289
O       14.19327231       6.87583275      11.57329034       0.40007237       0.08366915      -0.40390123       0.03717881       0.36929917       0.71158302
O       -4.41080280       4.73614318      11.98250604       0.42230530       1.22140759      -0.91441322       0.32664701      -2.12787533      -0.72597069
H       24.87796555      -0.26550389       5.45511726      -0.05888850       0.13051743      -0.39292813       0.30095950      -0.87378609      -0.02928317
H       -5.16600402       6.67104191      14.18738495       0.17882074      -0.04795613      -0.02788764       0.76956308      -0.23711735      -0.10008714
H       -3.57847551       7.27566116      13.69909596       0.09648250       0.04912633      -0.09361593       0.28297499       0.28421694      -0.06172671
H       -3.70406704       5.59173317      14.33342183       0.09420601      -0.01199328       0.08950341       0.00553676      -0.13995981       0.10566781
C       23.35088143      23.21289428      17.57224377      -0.52589665       0.12372120      -0.31881079      -0.69898301      -0.70279980       1.77341413
C       24.01150861      22.70311414      16.34067062       0.30659683      -0.27647866      -0.60399481       0.03710744       1.20889544      -1.58196068
O       23.82964519      23.22714762      15.21828814       0.17742060      -0.25944969       0.74412608       0.06015831      -0.55100209       0.69420362
O       24.82704481      21.67628897      16.53013131       0.22499840       0.38822908      -0.40770491       0.01289694       0.13849586       0.76332599
H       25.29083600       2.22559111      15.68267791      -0.05618224      -0.14321421      -0.20472361       0.33190715      -0.38401246      -0.72705400
H       22.65596515      22.44189534      17.97606820      -0.08524025      -0.17344627      -0.12784230       0.37045145      -0.16379033      -0.29114145
H       22.66338853      24.04786550      17.42080896       0.37396847       0.04537508      -0.07020470       0.51657152       0.42344457      -0.27380043
H       24.02841107      23.34557576      18.45210092      -0.04295966      -0.19361015      -0.00018786      -0.09583788       0.23661017      -0.76805902
C        0.66754112      19.85280046      10.60043493      -1.38411859       1.00843581      -0.20676696       2.13816094       0.72861034      -2.10354018
C        1.30527235      19.55600298      11.88777724       0.87855779       0.74791193      -0.55460989      -1.07938790       0.27950320       1.40336978
O        0.57050154      19.69101152      -6.17307734      -0.25604963      -0.06817828       0.70718468       0.05237234       0.22621450      -0.85470057
O        2.50864989      19.28219411      -7.30523408       0.10008524      -0.21061481      -0.34447114       1.50681782      -0.34809923       0.14535868
H        1.73245769      13.71938065      10.57150236      -0.21741354       0.07407190       0.11002811       0.25074935      -0.28004158      -0.64420855
H       -0.36349003      19.80293818      10.55611944      -0.18118961      -0.37837877      -0.30813221      -2.41300488      -0.42371714       0.25529611
H        1.14283885      19.23027732       9.76457433       0.08002825       0.04938748       0.26351654      -0.48599163       0.95325923       1.08437705
H        0.88203713      20.94332532      10.40821490      -0.20149877       0.05997446      -0.21867885       0.08458863      -0.72274673      -0.17308667
C        9.47882891      12.44352552       5.05994663       0.23754501      -0.06997448       0.41979934       1.03104019       0.31611204       0.40222257
C        9.28509996      11.51852312       6.25628462      -1.48759845      -0.09310774       0.38887997      -0.59181023      -1.51264679      -0.00575852
O        8.67353760      11.86431336       7.31438009      -0.15858684      -0.22555367      -0.20534390       0.96686167      -0.24111021      -1.05553770
O        9.74384304      10.26708900       6.03777094       1.20920184       0.36729580      -0.09924796      -0.74846244       1.67242837       0.74194062
H        8.15623683      13.47528184       7.19559626       0.20309046       0.10308861      -0.26826310      -0.10112260      -0.58188474       0.28129029
H        8.69785011      13.17084325       4.88156345       0.05445947      -0.23361994      -0.29595279      -0.58528620       0.19313294       0.40251389
H        9.54703247      11.83940010       4.14270187      -0.15709649      -0.29911357       0.12260138       0.49270633       0.28796521       0.17739493
H       10.39880140      13.07066176       5.26788305       0.05793662       0.17311944       0.12783218      -0.53668731      -0.68502533      -0.52132356
C        4.79685537       2.99057129      21.48880071      -0.70105858      -0.72949018       0.05382807       0.97750342      -1.59245574       0.36825883
C        3.93828173       1.84131428      21.05176113       0.06487220      -0.20387760      -0.42926042      -1.45380151      -0.90535319       0.61968845
O        4.01630421      20.37733346      20.00129463      -1.20460335       0.10592330       0.14721281       0.85832167       0.07019621      -1.05291653
O        2.98377959       1.42303142      21.92889899       0.30319283       1.12193112       1.16686148       0.33351129       2.08559060       0.62358522
H       21.98328220       2.26501743      22.68697075       0.11780413      -0.09917308       0.15743087      -0.00396731      -1.49166298      -0.08351623
H        4.37557865      23.08338607      21.25196291      -0.14169966      -0.00881900       0.04123581      -0.25307527       1.29996312      -0.90657067
H        5.83422397       2.77686750      21.17880690       0.15313533      -0.10827447      -0.02110072      -0.32658112       0.59405839      -0.30185589
H        4.79614070       2.98186154      22.56253918       0.14878389      -0.35599628      -0.14206753       0.18191262      -0.00992698       0.95428324
C       12.99992499       5.63076826       7.71132538       0.71776678      -0.91845853       0.45667940       0.25545838       0.89614725      -1.51516676
C       13.82250989       6.89672765       7.98552304       0.06553207       0.05566659      -0.73899909       0.16746825      -0.71449840       0.28473175
O       13.87334382       7.73033944      26.17751268       0.19702695       0.13307536      -0.33854701       0.04558048       0.46677732      -0.63995802
O       14.40922917       7.06415162       9.10655150      -1.04802072       0.23412942      -0.45690041      -0.19570267      -0.35575086      -0.92108464
H       13.84298462       9.04263128       7.46580605      -0.02256283       0.24023347      -0.00721318       0.04440835       0.00144506       0.29186523
H       12.57108309       5.35002974       8.61089688      -0.04184231       0.17096519      -0.27079019      -1.00630963      -0.69037807       2.20229864
H       13.61597680       4.76822544      26.55910292      -0.05234750       0.05531180       0.22974663      -0.07742094       0.37864217      -0.38147897
H       12.15149787       5.86441635       7.01681413      -0.08790368       0.10225538      -0.06819912       0.85081571      -0.41890323       0.10998224
C       10.56997190      23.03566490      -1.36421545      -0.87999332       0.43265541      -0.22012662       0.13328338       0.48208386       3.03877211
C        9.52047648      23.96290658      -0.69020093       0.40042853       0.97709087      -0.93162904       0.15983307      -1.47596979       0.14787610
O        8.44195777      24.25487564      -1.18624992      -1.48994296      -0.03144060       0.22878141       0.15979981       0.42910147       0.34032249
O        9.83265587      24.27441598       0.61818738       1.02158448       0.65253090      -0.26550192      -0.93826640       0.31129396      -1.43686056
H        1.09665632      19.65152337      -5.12403521       0.06670738       0.36144038      -0.21539427       0.47274774      -0.22566287       0.06486154
H       10.26834614      21.99152520      -1.30696267       0.11529456       0.08585486      -0.08331189      -0.40543771      -0.23591420       0.02444415
H       11.50623811      23.10879537      -0.75967959      -0.00302014      -0.11138720      -0.04305637      -0.52826691      -0.16194880      -0.68251932
H       10.75612414      23.29293628      -2.35309018      -0.10971597       0.22306907      -0.29996801       0.26035324       0.65014219      -2.05738044
C        6.27247222      10.17500856       9.38221728      -0.46939343      -0.36529098      -0.43503214       1.38098454       0.97879803       0.27685982
N        4.87834632      10.39455125       9.57260755      -0.79116114      -0.25390457      -0.88604244      -1.68219352       0.43594539      -0.28383398
C        3.99201760      10.08651664      10.61303174      -0.17717296       0.34714622       0.70534329      -0.96959096       0.29330459      -3.45453429
C        2.74258102      10.13161484      10.00351968       0.63133704       0.77740671      -0.09522431       0.11099893      -0.02974513      -0.28969973
N        2.82493353      10.53028980       8.66165785      -0.35462183       0.16790912       0.53992129      -0.91597670       0.14194682       1.05573261
C        4.10057853      10.73308196       8.48463341       0.33410570       0.08065546       0.35787946       1.92392445       0.12815875      -0.76869249
H        6.81109364      10.83919410      10.06938221      -0.21123416       0.23875573      -0.00331969       0.16382213      -0.51914382       0.16131781
H        6.54467589      10.59571222       8.40117937       0.09737500       0.21459026      -0.03261001      -0.01214169      -0.55599201      -0.00520493
H        6.56124648       9.12421351       9.50231739       0.15092029       0.34208952       0.05812431      -0.00367388       0.04843950      -0.07365184
H        4.27921425       9.86224242      11.56712573       0.18349995       0.08759640      -0.05100284       0.82217860      -0.44824901       2.30222416
H        1.79777008       9.79069613      10.38837634      -0.22006192       0.08883259       0.11639632      -0.21569932       0.01132715       0.29643863
H        4.63061979      11.16339253       7.60497244      -0.06869295       0.23135575       0.33542466      -0.82019007      -0.38430911       0.58091432
C        2.19649904      18.51936823      18.53352763       0.45474763      -1.04965212       0.80442518      -1.65220332       0.36011773       1.37261987
N        2.30347002      19.20727155      17.28164125      -0.16413364      -0.49019851       0.40574169      -2.51977730      -2.03790450      -1.14486480
C        3.29872792      19.93114380      16.74532549       0.55365328      -0.83229679       1.01578594      -0.43973550       0.54306471      -1.44058096
C        2.90223974      20.23439913      15.44957090       0.02895102       1.01779358       0.41794591       0.41578230       0.40118057      -0.53887194
N        1.70510307      19.60876357      15.21572111      -0.12640756      -0.49422181      -0.78000724      -0.41999435       0.29244912      -0.48017764
C        1.32276315      18.99921217      16.34024245       0.04845873       0.38746112       1.28506984       1.90386617       1.46628535      -0.63534558
H        1.34022781      -0.10043002      19.07398659       0.44656251      -0.03689661       0.21755139       1.05304670      -1.03587365      -0.27548775
H        3.10655746      -0.41287724      19.03560155      -0.10995236      -0.25487169      -0.09496879       0.83471751      -0.18227483       0.95968354
H        1.97661469      17.42126869      18.45135383       0.11348962       0.31266879      -0.19675361       0.24651693       1.01163733      -0.24820080
H        4.13471312      20.16559398      17.32510002       0.13258223       0.03652908       0.09625921       1.24621701       0.34909213       0.64012110
H        3.30396730      20.90249032      14.65700691      -0.21002583      -0.01547416      -0.18720180       0.02550423      -0.62159276       0.89520645
H        0.37743074      18.56742161      16.45431642       0.25606173      -0.11755480       0.13607881      -1.17551208      -0.71976298       0.71896738
C       11.53044444      20.16197618      12.60133767       0.49064250      -0.05084496      -0.78872179       2.82173443       0.86793572      -1.11382937
N       11.86685547      20.43852371      11.10938292       0.51027780       0.05345963      -0.36820004      -1.09533417      -1.37612915       0.98827314
C       11.67714076      21.61267086      10.38425858      -0.27741377       0.41163418       0.17632674       1.21831679      -0.81549799       0.82430470
C       11.97867414      21.30800463       9.08113961       0.85044107      -0.19747481      -0.11341304      -0.53131872      -0.75782877       1.07119322
N       12.16494318      19.92893743       8.94097218       1.15149045      -0.00817353       0.14949385       0.31355184       0.87988061      -0.78601366
C       12.06346277      19.43930601      10.15644948      -0.15492316      -0.47211972       0.07187279      -0.30727991       0.08756113       0.96739304
H       12.19926111      20.85326964      13.22133361      -0.01697185      -0.04875834       0.30322844      -1.20387411      -0.58683109      -0.67296976
H       11.87201745      19.14241848      12.88526006      -0.04938250       0.01561390      -0.08453671      -0.42874768       0.32397413      -0.42565122
H       10.47907409      20.30056788      12.72938256       0.02575595      -0.32581340      -0.04654987      -0.77347082       0.12805928       0.37588185
H       11.64752078      22.52185297      10.92721828       0.05114702      -0.19181219       0.08068523      -0.33889720       0.84815651       0.28713462
H       12.10413275      22.08783643       8.37833518       0.14983056      -0.17093112       0.29742388       0.11213988       0.15411294      -1.31084883
H       11.83884221      18.39613399      10.39400563       0.12984531       0.17144242      -0.04661064       0.35680646       0.40919036      -0.13683665
C        7.47051956      17.97791666      17.77802735      -0.15844429       0.77149126       0.41398213       0.51355398       0.81163377       0.29147631
N        7.56473202      18.91842035      18.93747133       1.53218828       0.11955213      -0.67868547      -0.83375573      -1.73961627      -0.73103976
C        7.21651220      20.22941047      18.80363305      -0.07726802      -0.37021070       0.47863122       2.32842302      -0.10170031       2.15966749
C        7.95346611      20.84647698      19.81627542      -0.47337441       0.01584796       0.51406666      -0.20636357       0.58082461       0.04074731
N        8.63026582      19.91341977      20.57718723       0.57427803       0.05519625       1.62064172      -0.01792766       0.72123456       0.88565189
C        8.31957566      18.73965456      20.08082290      -0.56420328       0.10844733      -1.28464042      -0.26519993      -1.02370429      -1.12373853
H        8.49763049      17.81898812      17.41243481       0.09664572       0.18345628       0.07612318      -0.35377398      -0.22605836      -0.09777162
H        6.84429528      18.42025381      16.99988961      -0.05579035       0.19956763      -0.06642197       0.18619424       0.30578163      -0.07015996
H        6.98455784      17.06341450      18.04493706       0.11130504      -0.15373411      -0.05660927      -0.10129496      -0.84066963       0.45232290
H        6.49432350      20.46025381      18.10308146       0.05257311      -0.14687902       0.10591300      -1.22241426       0.89182281      -1.12096691
H        8.05114841      21.89654508      20.09283177       0.20165711       0.24758004      -0.13634840      -0.17794827      -0.12726140      -0.31578571
H        8.45828185      17.71650540      20.47869145      -0.06500047       0.17705406       0.06635207       0.09309308       0.89984918      -0.14905275
C        3.93178830      16.18464273      21.36766133       0.88285745      -0.08100283      -0.01752215      -1.21749949      -0.14862794       2.43182564
N        4.80318155      16.74581942      22.39238324      -0.71363051      -0.62734276       0.62792919       1.77571082      -0.20567369      -0.29124391
C        5.95293468      16.03625466      22.84898932       0.48163556      -0.73233531       0.07656123      -2.55483866       3.34162807       2.10191941
C        6.36665990      16.73870496      23.96695871       0.23436942       0.75320124      -0.37948502      -0.26484257       0.59975761      -0.88175905
N        5.56549410      17.91888986      24.03020560       0.17996951       0.38539572      -1.13632639       1.72671914       0.88699448       0.92362320
C        4.73057455      17.93919831      23.01214785       1.24242326       0.76520975      -0.20020749      -1.00016689      -1.22977793      -0.69705534
H        4.62390708      15.69042990      20.74954681       0.00084689      -0.20662698      -0.00523240       0.34549251      -0.48864529      -1.79350662
H        3.32875158      17.01719751      21.00340279      -0.01446647      -0.26164734       0.02101546      -0.04632941      -0.34965003      -0.62785691
H        3.30885850      15.38970287      21.89328614       0.28942743       0.16084058      -0.11902523       0.36467379       0.87276608      -0.86177135
H        6.15527404      15.14596420      22.39359739      -0.13803590      -0.07539343      -0.38379554       0.95750201      -2.28770304      -0.89934403
H        7.22379180      16.51386614      24.59716000       0.39982224       0.11682920       0.01026695      -0.37670839       0.35354036       0.16142607
H        4.05397270      18.71164657      22.66275469      -0.07252196      -0.11039325      -0.11567849       0.12109202       0.12603478       0.39293423
C       15.83218086      -0.54626155      13.79485437      -1.03852842      -0.19541140       0.37645704      -0.71531606       0.70673871       0.10531715