640
Lattice="19.152215 0.0 0.0 0.0 19.152215 0.0 0.0 0.0 19.152215" Properties=species:S:1:pos:R:3:momenta:R:3:forces:R:3 energy=-80136.7734375 stress="-0.020529450848698616 0.00030133151449263096 0.0008685443317517638 0.00030133151449263096 -0.021427584812045097 -4.259331035427749e-05 0.0008685443317517638 -4.259331035427749e-05 -0.01869843527674675" pbc="T T T"
C       12.77625706       6.47628024      17.52253797       0.32169897      -0.13333275       0.46280366       0.94878453       1.69396424      -0.03292474
C       14.24516699       6.91087920      17.48208981       0.29238036      -0.18880717      -0.54616148      -0.19836164       1.62859142       0.50220627
O       15.19823598       6.03649124      17.26437386      -0.89427866      -0.22455646       0.63690474       0.71934819      -1.13795674      -0.29309678
O       14.60946691       8.08816074      17.69337427      -0.08950374       0.56115252      -1.25270226      -0.64615440      -0.47750425      -0.14225470
H       14.88824461       5.05270728      17.25172938       0.33636277       0.00872224      -0.22502825      -0.53109205      -0.09950399       0.17201361
H       12.24393374       7.36675164      17.93449631      -0.21670170       0.11462298      -0.07292851       0.01788396      -0.93016887       0.05581491
H       12.73336866       5.56614208      18.08943703       0.04641846      -0.23794880       0.15119610      -0.51146072      -0.50521922       0.48888338
H       12.41530301       6.31149353      16.51153566       0.39220859      -0.02377346      -0.27507603      -0.05699027      -0.25374669      -0.39205578
C       10.85013768      13.32801601      15.60725789      -0.48891130       0.71468019       0.15655015      -0.62519705      -2.03147268       3.75897980
C       12.27027297      13.14095926      15.18165607      -0.23025570      -0.00323762       0.09927587      -0.32466507       1.37851763      -0.81801969
O       13.02155972      14.23948245      15.38903962      -0.90737571       0.11238502       0.14414784       0.46990108      -0.43680522       0.28171080
O       12.68674347      12.13894603      14.59738841      -0.51100202       0.51243221      -0.41234941       0.04392260       0.16684055       0.11721969
H       14.54179530      12.50320541       2.40744077      -0.18176632       0.08507047       0.06369809      -0.35885650       0.62629187      -0.82655919
H       10.10796502      13.61128393      14.90106912       0.03222967       0.09929189      -0.00599841      -0.39306983       0.69146299      -1.11308169
H       10.73858966      13.91733310      16.59178554       0.39999310      -0.01617034      -0.14435349       0.27683127      -0.32380587      -1.55248845
H       10.53218958      12.29365795      15.95117663       0.04053757       0.00512692      -0.05657270       0.05649511       0.63942349      -0.43399179
C       -1.21988466       7.56053232       8.37982914       0.74494414      -0.10975764      -0.37172497      -1.99645066      -1.94890451       0.39206886
C       -1.65314563       7.10594126       6.98563018      -0.60580398      -0.10975450       0.65460429       0.94145954      -0.46479431       0.85794169
O       -1.89443128       5.79542890       6.79748606      -1.87429786      -0.70236106       0.21856524      -0.23690185       1.19549763      -1.37177551
O       -1.70717780       7.86143926       6.04778530       1.14263476       0.11698390      -0.05193959      -0.15586723       1.48368478      -1.35605097
H        5.46878991      19.30340138       7.89461532      -0.23713860       0.05267263       0.16355362      -0.58633262      -0.45374614      -0.55633402
H       -2.11277510       7.38710056       9.02880991       0.06229068       0.07915733      -0.45455608       0.41704130      -0.27628148       0.02734452
H       -1.07886729       8.58180145       8.52704842       0.29520884       0.05489480       0.40506757       0.48718047       2.10570359      -0.54235846
H       -0.38861810       7.02175255       8.80735606       0.07270919       0.18508387      -0.07540605       0.38494882      -0.55253959       0.06153074
C       11.57635168      15.09960854       2.28318316      -0.01201470      -0.53491749      -0.30879921       1.04227901      -0.18975529       0.62764847
C       10.51743555      14.53786238       1.37682346       0.15173351      -0.16720368       0.98481041      -0.76335979       0.46059179      -1.37130523
O       10.65253151      14.58495189       0.12761170       1.34986874      -0.47901571       0.03621675      -0.38262790      -0.39719898       1.17741740
O        9.47202668      14.03135706       2.05141731      -0.46976273       0.58788697       0.40085441      -0.34355766      -0.53309572      -0.77365983
H        8.65345808      13.40209554       1.37128064       0.11443978       0.22532479      -0.02910183       0.55419093       0.99250221       0.00414133
H       11.24407526      15.85941860       3.05120782      -0.03758853      -0.40875363       0.02733886       0.38930842      -0.92845750      -0.81430304
H       12.47416949      -3.71777224       1.70681577      -0.05448156      -0.01388421      -0.07477177      -0.84714401       0.10662688       0.35218161
H       11.92603246      -4.96869740       2.80736246      -0.14164428       0.12857120       0.07836650       0.21168658       0.51169491       0.42210758
C       10.79844445      16.96726795       7.23790680      -0.79492368      -0.66621435      -0.54183364      -0.31277919      -2.17679954       1.80120063
C       12.15012461      17.25380195       6.69146443      -0.80969709       0.04468787      -0.72218025      -0.77795362      -1.14125991       1.48421490
O       12.11820604      18.09502553       5.72494794       0.26044391       0.35895634       0.24558576       0.83356404       2.12487006      -2.89280534
O       13.20908074      16.76158177       7.04030412      -0.52237444      -0.73088654       0.20170261       1.05805635      -0.62139714       0.72372878
H       16.95546790      17.22756261      16.20239407       0.15856045      -0.07134054       0.02838617      -0.27451828       0.34112442      -0.30211788
H       10.14697845      17.76378389       6.96541884       0.22583794       0.47140344       0.16581315      -0.94585073       0.49445111      -0.23917797
H       10.66557580      16.74659042       8.36320870      -0.02552192      -0.01630650      -0.05452844       0.69181395       0.38581610      -1.54209208
H       10.49827044      16.01075240       6.73591587       0.20198487      -0.08797023       0.04776218      -0.06107935       0.66586816       0.42853403
C        8.35122618      17.59679717      12.57216994      -1.34738429       0.03107180       0.70200309       0.92108619      -1.81922328       1.33451176
C        9.56320821      16.75209756      12.12494084       0.10708166       0.38251616       0.33688091       0.60927033       1.67384541      -0.66010809
O       10.41396336      17.35744162      11.24047692      -0.04103777       0.00397577      -1.06949471      -0.95562631      -0.32484996       0.53263122
O        9.76559906      15.65344606      12.62468966       0.56716562       0.40150684       0.00457862       0.00516349      -0.74424195       0.15495533
H       11.31707436      16.72996086      11.04947598       0.08728482       0.07285337       0.18271234      -0.35587132      -0.09156811       0.47877711
H        8.17896965      18.52380342      12.15893904       0.19506639       0.30249340      -0.01775704       0.12251797       2.19422483      -1.73947656
H        8.45140603      17.82378142      13.64825502       0.14383070      -0.42004609      -0.23196677       0.06565722      -0.42983800      -0.12075344
H        7.44234279      17.03213993      12.42534949       0.00164848       0.17931165       0.02869098      -0.41173366      -0.47197598       0.08601675
C       18.27097969      -4.41986580      -1.40784305      -0.25783332      -0.49312971      -0.45909830       0.12058914       0.35015589       1.34060812
C       17.48039790      -3.72965340      -2.47085112      -0.61613786       0.37388181       0.67313904       0.12406415       0.21407150      -0.58608353
O       16.90012010      -4.25786099      -3.43856916      -0.95152593      -0.25298409       0.28302703       0.40094686       0.07866335       1.13635004
O       17.54551663      -2.42288775      -2.27905242       0.03870999       0.11392252      -0.74352106      -0.27333939       0.92307127       0.07714427
H       14.81536561       1.19565018      -1.12197414       0.24505714       0.22786821       0.20492849       0.70758814       0.44589466      -0.45372140
H       19.28893321      -4.59667033      -1.71180416       0.03517346       0.01164848      -0.18315511       0.59715700      -0.14493477      -0.37626284
H       17.79157612      -5.35401145      -1.31105883      -0.18525610      -0.13894676      -0.03619560      -0.45950925      -1.56770611       0.36972126
H       18.33378717      -3.97224001      -0.36196290       0.00631358       0.12516581      -0.31053343      -0.41207024      -0.01920776      -1.45194674
C      -11.78942236      23.10305264       5.96042158       0.75895530      -1.29292446      -0.95548468       1.45700181       0.66586864       0.93545431
C      -10.28339178      23.54181259       5.79732186      -0.85267729      -1.59874897      -0.46383506      -0.83528185      -1.59358501       0.78493643
O       -9.31344077      22.82040321       6.12003503      -0.75640872      -0.30071877      -0.70295990      -1.28097463       1.07018316      -0.42635584
O        9.01665089      24.77741066       5.33066871      -0.23289453       0.14977644      -0.79807434       1.53825200       0.34588411       0.22671025
H        5.11176689      13.18202571      -2.91068807      -0.12909318       0.40720671      -0.23652275       0.09569460      -0.66275394       0.65285552
H      -11.74436593      22.18542911       6.58291574       0.06497716       0.08361663      -0.05080501      -0.50584441       0.21489520      -0.62860161
H      -12.29217586      23.05717585       4.99192081      -0.14383942       0.37961098       0.03486655      -0.01993391      -0.58650792       0.00699793
H      -12.32968084      23.90606937       6.52623207       0.15093195       0.51119663       0.18071352       0.41950500      -0.59707344      -0.16948821
C        3.11650341      -3.05412615      -2.22852566      -0.17217388       0.34600561       0.75901581       1.06685865      -0.32901275      -0.10843778
C        2.62595378      -2.42749454      -3.54265447      -0.22497890      -0.61970974       1.22585104      -0.75748271       0.11518744       2.40104389
O        1.58825258      -1.58484161      -3.41305400      -0.35838694       0.97197119       0.53086501      -0.06715351       0.56457406      -1.37029517
O        3.13642018      16.46974469      -4.60694672      -0.39557352       0.22191083       0.30748314       1.17170417      -0.35542572      -1.74296427
H      -10.94242921      25.12190481       4.88437869      -0.13117251       0.09016887       0.18838294      -0.63153082       0.42239130      -0.73040211
H        3.71527723      -3.98656359      -2.50406625      -0.11498746      -0.14953355       0.04248424      -0.91806483       1.20929217       0.42790905
H        2.36084760      -3.30602989      -1.43772143      -0.17387474      -0.01707926      -0.18814017       0.37845144       0.36534750      -0.93840587
H        3.88283905      -2.35717348      -1.79608945      -0.08376425      -0.01826224       0.13225600      -0.62136531      -0.41511476      -0.05807008
C       -4.46338315       6.84991844      12.81498545      -0.62704898       0.13263251       0.53168849      -0.33094949       0.23826382      -0.42046040
C       13.83994365       7.08544752      11.53934156      -0.73985594       0.28236447       0.89494835       0.39903820      -0.59961283      -0.47526765
O       14.57322304       7.07185796      10.41446020      -0.55274336      -0.74399889       0.24449224       1.34982407       0.17257009       1.14293921
O       -6.53559129       7.24717107      11.52228046       0.18485615      -0.42530949      -0.26873599       0.20451647       0.00265557       0.68600959
H       23.45292644      -1.65542299       5.81765275      -0.02309694      -0.31441036       0.25668491       0.03540361      -0.03633654       0.42493510
H       -4.59959131       7.76294030      13.39051400       0.11261182      -0.06393503       0.11435196       0.20171179       0.34100437       0.32102785
H       -3.38670290       6.64391616      12.67423663       0.25614796      -0.18829792      -0.16249790      -0.41109392       0.22112688      -0.37481454
H       -4.87682906       6.06200178      13.44238372       0.11765240      -0.02922806      -0.14644552      -0.40864450      -0.31677917      -0.09664832
C       25.08994270      21.42347733      17.62657273      -0.02193233       1.01505591      -0.73742363      -0.12665947      -0.78224540       0.07758683
C       25.08582085      20.89174981      16.24763754       0.44434182      -0.05554876      -0.06317019      -0.78359872      -0.10338938      -2.07715511
O       26.06761495      20.76533523      15.50946316      -0.10456392       0.09802561       0.35865356       0.28712761       0.37449545       0.45384499
O       23.83983287      20.52987432      15.82985497      -1.33811559       0.98391587       0.49079837       0.15182698       0.46963227       1.13177156
H       23.79472092       1.27307256      14.81544823      -0.10886358       0.04784348       0.16604351       0.39880931      -0.12390417      -0.77638191
H       25.11863870      22.50355969      17.71871273       0.26460455       0.16131952      -0.11270652      -0.16348295       0.32251662      -0.20644921
H       25.99927314      21.01075016      18.01551332      -0.06485323       0.02081809      -0.14496769       0.71893239      -0.08469516       0.88877118
H       24.22226555      20.98565473      18.12387764       0.24843030       0.12403194      -0.24961768       0.04016688       0.33789212       0.50355160
C        0.38964366      20.36829620      11.64499199       0.60695074       0.01744645       0.46746763       0.14074871      -1.75988734      -1.99015641
C        0.40243709      20.25403768      13.09511212      -1.36241183       0.76322407       0.18503821       0.82473326      -1.01093471       2.59511232
O        0.23590738      21.30877724      -5.37372488      -0.87285540      -1.35381557       0.25195338      -0.14278708       0.99798596       0.58835626
O        0.62351152      19.09122320      -5.51157913       0.49276703       0.10071224       0.41516882      -0.12127492       0.57858080      -0.78720784
H        2.03897865      14.09615484      10.15835734      -0.31094999       0.17216775      -0.02406400       0.33137858       0.11830130      -0.32044542
H        1.33230768      19.93851172      11.26746337      -0.25695800      -0.12217716      -0.25012095      -0.17640382      -0.55873418       0.01288980
H        0.40674682      21.30696436      11.11491536       0.16326093       0.09399053      -0.09362629      -0.64933383       0.83799666       0.51788723
H       -0.46399796      19.71826271      11.33044191       0.39198556       0.22350178       0.04997729       0.67092323       0.45170426      -0.39923030
C        9.84297544      11.85831424       4.82808062       0.32442939      -0.31999916      -1.63979642      -0.61432707       0.79858798       1.73335338
C        9.74693571      11.17809858       6.17713200      -0.75730806       0.12152555      -0.01166783       0.35984051      -1.92525291       0.30409074
O        9.83105134      11.70270675       7.33167541       0.66139906       0.81313784      -0.54299758      -0.02215866       0.39800692      -1.17610562
O        9.56514957       9.88309301       6.00644170       0.75348962       0.57940337       1.05059892      -0.17242484      -0.01583144       0.45509154
H        8.51103397      12.44072797       8.07667141       0.17174237      -0.00156603       0.28543928       0.76671797      -0.12790522       0.09388284
H       10.04901717      12.88652713       5.01690341       0.12524343       0.06150057      -0.00578507      -0.15969582       1.15554619      -0.05657905
H        8.87063024      11.73548465       4.38441889       0.16602680       0.07637732       0.16692330      -0.36812696       0.06617599      -0.65588242
H       10.60177264      11.55331089       4.15645839       0.20566758      -0.24309992       0.17727861       0.89384925      -1.01795435      -0.47132486
C        3.28666276       1.04018200      22.44685312       0.15851344       0.65057216      -1.64432543       0.36217153      -0.27485573      -0.59060985
C        4.44957986       1.97699837      22.04592407       0.03868883      -0.06601797      -0.59274118      -1.84340358      -0.84244895       0.35664678
O        4.95184314      21.08473183      20.93540880      -1.36881423      -1.12107651      -0.63205731       0.72229481       0.13994300      -0.61623687
O        4.78687380       2.88689780      22.96685600      -0.60473096      -1.25829240      -1.42666761       0.53572011       0.02674794      -0.06097502
H       23.27576353       2.90126849      23.74879913      -0.12170742      -0.06958059       0.00591644      -0.13201189       0.50669724      -0.11244407
H        3.63022679      19.54904377      23.29250303      -0.16494464       0.35196562       0.02393302      -0.31718415      -0.02951879      -0.72213382
H        2.87264041       0.47765634      21.54533658      -0.20695839       0.13004758       0.01782035       0.93337476       0.34871626       1.11703157
H        2.46129971       1.63049936      22.83275476      -0.13130471       0.00385615       0.45258231      -0.28598800       0.27498287       0.22156477
C       13.61632414       6.12617912       6.20969095      -0.28110896       0.25650926      -0.36553500      -0.97389829       0.48685858      -0.37737438
C       13.68891907       7.05768426       7.40648944      -0.88773259       0.56091553      -0.06173018      -0.29066980      -1.95945084      -0.85033798
O       14.20185354       8.19767188      26.33874444      -0.54001196       0.97354207       0.86709873      -0.15508646       0.20603216       0.61419076
O       13.27334853       6.48981268       8.48933861       0.48477241       1.12729622       0.13031785       0.36832875       1.29952991      -0.97048199
H       13.99147065       9.19660321       8.13853108      -0.07615360       0.27515836      -0.05635398       0.10061815       0.23644942      -0.26253417
H       14.44280041       5.44729558       6.21571903       0.17052398      -0.01538571      -0.16260647       1.09584117      -0.37682033      -0.02310344
H       13.57230103       6.65102304      24.40230676       0.08723222       0.21767954       0.01222547       0.16249141       0.06053095       0.06964952
H       12.75367253       5.47073600       6.29288019      -0.14752799       0.06066563       0.07895089      -0.45189649      -0.06155355       0.09442946
C        8.43785191      24.29493256      -0.86746624      -0.90801013       0.16340834      -0.84302577      -0.80733562       0.29744083       1.17711806
C        9.67419761      23.84397204      -0.15872458       0.23255611      -1.47216741       0.32144543       0.94723415       1.33263075       0.56050819
O       10.10043646      22.71091186      -0.20621511      -0.21610645      -1.55123887       0.08859419       0.31781214      -1.34098911      -0.15829712
O       10.33104663      24.85573872       0.50581703       0.81981820       0.78874835      -0.48705647      -0.75013179      -0.13107419      -0.44674763
H        0.59796562      21.28408354      -3.89187294      -0.00319604       0.36831131       0.28436684      -0.31885955      -0.02543220      -0.64723790
H        8.17304925      23.52394786      -1.61519856      -0.16915257      -0.04258285       0.17507817      -0.27657807       0.34709144       0.50878292
H        8.65210664      25.24631872      -1.34311683      -0.12561056       0.01064911      -0.01833550      -0.04138125       0.37249497      -0.36878034
H        7.63858747      24.53759577      -0.06677302       0.05148314       0.00191269      -0.22243663       0.86069727      -0.62766361      -1.33061910
C        5.96602643       8.19211011      12.06495628       0.57187815      -0.86405925      -0.89089744      -1.11765528       1.14958429       2.08177662
N        5.29544692       9.45003071      11.67799291       0.83551321       1.13154128      -0.65654978      -0.05670869      -0.56008118       0.29375690
C        5.63663251      10.45750655      10.78200687       0.63494001       0.37268413       1.63857839      -1.14961493      -1.42115581       0.94772011
C        4.75099136      11.46578229      10.97062027       0.85532209       0.14339627       0.32881815      -0.51809639       0.58105475       1.00422227
N        3.93308727      11.14599303      12.07092340      -0.18311229      -0.34516445      -0.49553397      -0.54832262       0.46890205      -0.81534559
C        4.26882944       9.90199113      12.45209337      -1.28628929      -0.87544126      -1.29079964       0.34293240       2.36652994      -1.09680200
H        6.79576166       8.51611924      12.73271847       0.11167198       0.07760310       0.31945136      -0.01328923      -0.73822075      -0.58410096
H        6.22846246       7.59483464      11.21520650       0.24497446      -0.23710921       0.03872634       0.23614889      -0.56639826      -0.30241477
H        5.17522991       7.72452466      12.76262071      -0.13308935       0.24070621      -0.12600953       1.44345820      -0.06824775      -1.23855877
H        6.37763873      10.29984463      10.08348021      -0.30867077       0.25032709       0.05960076       1.65632081      -0.24056470      -1.48939669
H        4.71186184      12.39526673      10.36672352      -0.01694132       0.11364978      -0.30354652      -0.33177477      -0.67493176       0.77219647
H        3.97214624       9.51742118      13.41007744      -0.07321140       0.16246280       0.24668085      -0.09143372      -0.59807909       0.06924847
C        0.73205191      18.78568379      18.98403775      -0.14325974      -0.70971036      -0.47391903      -0.52369487      -0.20406920       0.23970027
N        0.89151389      19.91994668      18.04944216       0.47705710      -0.09058548      -0.64438017       0.84780633      -1.02359974       2.22278905
C        2.07367428      20.60705265      17.99061094      -0.17897491       0.27926540      -0.56518689       0.99742603       0.79633003      -0.62005806
C        2.02633987      21.40521605      16.87875664       0.20694851       1.32559123       0.04027536      -0.06622219       0.68337846       0.21822003
N        0.79924420      21.17199068      16.32488555       0.38578377       0.12215529      -0.82962369       0.35370746       0.63559759      -1.85019469
C        0.14315887      20.27758759      17.02227481       0.10426913      -0.50130024      -0.39665356      -2.65396285      -1.08219409      -0.47797814
H       -0.30670863      -0.71397604      18.91732555      -0.00653529      -0.08173210       0.01733797       0.39616746      -0.56441307      -0.60212052
H        0.78252909      -0.12488322      20.05702366      -0.00998891      -0.03729832       0.23597668       0.51231265       0.65713549      -0.26558149
H        1.52919169      18.05135332      18.75471928      -0.01141446      -0.15735128      -0.27719447      -0.72436368       0.03963423       0.05361682
H        2.90324202      20.45746816      18.64010205      -0.34581440       0.06735907      -0.21904435       0.24075532      -0.31336963       0.67648762
H        2.65917695      22.19584277      16.45796859      -0.11322655       0.04596131      -0.05298558      -0.05631864      -0.60784000       0.37791562
H       -0.86623280      19.87314018      16.75835499       0.01798031       0.02916266      -0.19722013       1.09280896       0.39377680       0.31903604
C       14.28493599      21.35120815       6.89776584      -0.34255193      -0.60337422       1.08800541       0.08695646      -2.02400041       1.64681077
N       13.48165733      21.16544057       8.11399232      -0.55062294      -0.16300723      -0.43112547       0.84303635       0.25956053      -1.50130308
C       12.96914984      19.97383806       8.47582531      -0.22523257       0.39284918       0.15230963      -1.02801132      -1.22316957       2.44467258
C       12.28355786      20.25642587       9.64671033       0.19512381       1.12490331       0.76281226      -1.31902909       0.76630092       0.10897186
N       12.26666032      21.65054966       9.91318545       0.96320927       0.13266822      -0.49395950       0.03615570      -2.17867732       0.92858231
C       13.06497822      22.10204297       8.98753967      -0.92497210      -0.28856064      -0.40406674       0.35505748       2.82360077      -0.90479529
H       13.57346720      21.26564988       6.07516314       0.08705289      -0.04703010       0.28373290       0.66255355       0.09127831      -0.46982050
H       15.05140896      20.52218581       7.02193356      -0.32628360      -0.14687314       0.26312598      -0.81846786       0.91045988      -1.23009920
H       14.81974704      22.26100974       7.01289072       0.14956412       0.22619296       0.07714270       0.33993065       1.11283660      -0.40155458
H       13.06349631      18.94949981       8.11975860      -0.20714736       0.07359227      -0.23284730       0.52552992       0.70625615      -0.57210457
H       11.62401367      19.59948177      10.20021896      -0.08239439       0.26248981      -0.01944086       0.15365809      -0.09658927       0.17350453
H       13.29284242      23.17751441       8.81930155      -0.09492823      -0.22069404       0.67606239      -0.07847023      -0.77738667       0.14374593
C        6.78569295      17.49719256      15.66300710      -1.09429534       0.00489382       0.09232701      -2.66648746       0.23435631      -0.26292697
N        6.83798264      17.13750912      17.03948909      -0.75446672      -0.03852019       0.72326785       0.02806702      -0.38022441       2.24565482
C        7.50936945      16.08089652      17.60715319      -0.09831418       0.73797970      -0.77452404       0.35867012      -1.53920698       1.58781362
C        7.43956969      16.23444823      19.00373063      -0.20373768      -0.27023240       0.72182847      -1.27745545       1.53620696      -0.85691589
N        6.63137085      17.35390259      19.30980909      -0.50067878       0.00651457       1.50479255       0.57038534      -0.54683441      -1.44151568
C        6.27576569      17.84422792      18.10591820       0.90565838       0.13363179       0.56469306       0.63647652      -0.82153761       0.50708675
H        7.09560009      18.53627142      15.59785870       0.13108104      -0.33147045       0.10404402       0.40719849       0.05487071      -0.68257576
H        5.68169565      17.44510089      15.41347195       0.23043671       0.32915956       0.18302717       0.97318292       0.36163276      -0.14788738
H        7.23960172      16.75644283      15.02022703      -0.21919855       0.05115542       0.03812848       0.71664745      -0.00525713      -0.11127585
H        7.64108573      15.06333198      17.17829559       0.03694435      -0.04082515      -0.31809283       0.10531450       1.16467118      -0.36097538
H        7.72757298      15.58908533      19.81253303       0.03905355       0.03951746       0.18346975       0.41263771      -0.24799097      -0.06437403
H        5.47868423      18.55207747      18.00108911       0.11413780       0.06689931       0.01789673      -0.17886335       0.48530915      -0.28714007
C        8.38033532      15.03032224      24.80176427       0.02844547      -0.45906072       0.60518517      -2.15959120      -0.88340598      -2.69084311
N        7.06418002      15.70682264      24.45290967      -0.12090521      -0.06384350      -0.41831667       1.73568344      -1.11160147       0.86942077
C        6.66233656      16.08943953      23.18564271       0.87126843       0.28817237      -0.88453860       2.08630228      -0.88357383      -0.16786882
C        5.51716075      16.75157238      23.35264221       0.41317063       0.69663512      -1.07008211      -0.23399404       0.01380727      -0.12568872
N        5.22058773      16.80416078      24.66334941      -0.36585973       1.23606951      -0.31388554      -0.09413505       0.09876084       1.28258324
C        6.16796542      16.15093183      25.34829048      -0.54433532      -0.51260917      -0.83318412      -0.42152131       0.11359610       1.23904097
H        8.70927038      15.31364322      25.74811089      -0.19980227       0.11535818       0.26928299       0.26140445       0.51096940       1.76744986
H        9.03712236      15.40734803      24.02725506      -0.03340962      -0.03559761       0.06459175       0.54972130      -0.23720041      -0.12003929
H        8.25606427      13.91071469      24.71776995      -0.05864892       0.10959435      -0.17291252       0.14869958       1.20278549       0.13296670
H        7.34063591      15.98941214      22.34984094       0.13737712       0.23030444      -0.13988071      -0.11007750      -0.07179371      -0.09775037
H        4.87223047      17.14538645      22.64164200       0.00639915       0.26085987      -0.30485585      -1.15197861       0.74710447      -1.35588264
H        6.21415208      15.98530023      26.46674383      -0.17813056       0.00670957      -0.04794819      -0.00129217       0.39547172      -1.76623178
C       13.21773279      -0.26499444      13.18105921       0.51327286       0.58054254      -0.66507225       0.24472198      -0.76615673       0.38864705