640
Lattice="19.152215 0.0 0.0 0.0 19.152215 0.0 0.0 0.0 19.152215" Properties=species:S:1:pos:R:3:momenta:R:3:forces:R:3 energy=-80136.1015625 stress="-0.015204065479338169 -0.0007265585009008646 0.0009252658928744495 -0.0007265585009008646 -0.018512897193431854 -0.00015741135575808585 0.0009252658928744495 -0.00015741135575808585 -0.020628686994314194" pbc="T T T"
C       13.34398185       5.22017434      18.36671506       0.10707761       0.30082485       0.59052313      -1.68447161      -1.06603885       0.99541700
C       14.64722621       5.83433711      18.45807965      -0.21666788       0.44905391      -1.10732419       1.24497271      -0.13075620      -1.21565115
O       15.44155857       5.73367458      17.35184832      -1.06198039       0.13867908       1.11727869      -1.00192201      -0.74493456       0.32513154
O       15.00585974       6.42727813      19.46565480       0.94517571      -1.62556285      -0.09410670       0.81079686       0.47077212       0.37272170
H       15.01533237       5.01773018      16.66525793      -0.02072120       0.00808427       0.24716673       1.02623940       0.68288332       0.29017499
H       12.74041435       5.51374791      19.25242255      -0.15662665       0.01128895       0.00956226       0.49883121      -0.74767292      -0.15153602
H       13.32711220       4.12900959      18.16884670       0.12212922      -0.14355764      -0.09657126       0.13501054       0.37458766       0.36033040
H       12.77148033       5.66648275      17.60076494       0.10120964       0.29141134      -0.07258343      -0.65559608       0.61400795      -1.58262038
C        9.56136596      13.84835841      16.25821467      -0.44771609      -0.34131120       0.00414211       0.16137838       1.82119977       0.24018008
C       10.96581592      13.65174047      15.78942666      -0.27828867       0.39443621      -0.23656209       1.19395232      -1.70634949      -0.01599392
O       11.73557977      14.72651216      15.77067605       0.75706240       0.39647764      -0.44256284       0.94634211       0.19583783      -0.26576516
O       11.43965869      12.51235996      15.51630168       0.75120507      -0.08981739       0.67815105      -0.58269250       1.60132241       0.25893885
H       15.04950283      14.11832299       2.28937002      -0.19554005      -0.04840573       0.14153810       0.24026287      -0.94114476       1.58685064
H        9.40054023      13.23975731      17.15010830      -0.27147078      -0.00933986       0.06904688      -0.21031395      -0.00799459       0.11353633
H        8.86815826      13.53952781      15.46440750       0.31005170      -0.11788607      -0.11637469      -0.17933756       0.27598181       0.09916544
H        9.53714991      14.96789229      16.52839729      -0.09036206      -0.04047933      -0.20133293      -0.64526629      -1.72941267      -0.50282043
C       -0.68374007       8.19746101       8.59889509       0.31205802       0.65074423      -0.32808287      -0.74509847      -0.11329781       0.40659106
C       -0.68203681       8.29600166       7.10258010      -0.84095819      -0.45810474      -0.10143562       0.42631802       2.02495480       0.77155638
O       -1.32303126       7.39341966       6.41357308      -0.39950014      -0.56249143       0.52355671      -0.34233180      -1.56268477      -0.80058575
O       -0.19960708       9.28674118       6.54532262       0.21492894      -0.08299006      -2.13258881       0.15467677       0.13534832      -0.34141779
H        6.80075165      17.42886631       5.37870442      -0.25981963      -0.06960761      -0.24423485       0.31057602       1.77521646       0.66048449
H       -0.66462527       7.13576461       8.91092767       0.02488651       0.27763660       0.09707058       0.23781897       0.58402300       0.15348238
H       -1.67754301       8.62263995       8.93569525       0.40791459       0.07075812       0.09092820       0.75796765      -0.45717165      -0.05892628
H        0.10972604       8.83253389       9.02407296      -0.27878659      -0.04683289      -0.30187967      -0.14930172      -0.38779026      -0.08667320
C       11.69075543      13.74192694       0.46211472      -0.37919550       0.99090544       0.22844598      -0.45356995      -0.92540699      -0.64706063
C       10.24871416      13.61388842       0.99368253       0.45867395      -0.69870449      -0.89243699       0.57201231       0.68130708      -1.04349494
O        9.91515221      14.24007470       1.98906794       0.07440830       0.69927258      -0.70649093      -0.47538498       0.01386479       0.99680305
O        9.41721521      12.90999962       0.22610901      -0.91430488       0.22904504      -2.07606735      -0.57531595      -0.49357313       0.45176744
H        8.36181213      12.75300036       0.56362123      -0.12633593       0.13846073      -0.03357132       0.98059642      -0.00279582      -0.83234864
H       11.81929519      14.61939161      -0.22624750       0.26462731       0.04099323      -0.00559254      -0.28433311      -0.44728833       0.86073005
H       11.91159631      -6.28889321      -0.18534726      -0.10569784       0.20347463      -0.00934801      -0.26395598       0.39539260       0.34911466
H       12.39785677      -5.39749415       1.31672783       0.02678851       0.01738004       0.19780847      -0.34202772       0.27416927      -0.52248436
C       10.75885989      16.31172940       6.97379969      -0.27874811       0.27588205      -1.73799457      -0.03744793      -0.44419578      -1.71718931
C       12.23358187      16.84835631       6.73750886      -0.43131493       0.60363706      -0.11702955      -1.58623683      -0.50347406       1.38672423
O       12.38472931      17.71498056       5.76154555      -0.38432142       0.30073508      -0.71485493       1.86459231       0.14746469       0.70964164
O       13.10493172      16.57231418       7.58928850       0.96717584       0.09113970       0.93681730      -0.50006914       0.21199612      -1.57742167
H       17.10195407      16.73054502      16.43481403       0.07375625      -0.40423943      -0.12138161      -0.00732028       0.50023031       0.04000056
H       10.57277547      16.48073622       7.99610965      -0.01587244      -0.01670114      -0.54077648      -0.60325181       0.89446926       1.58217525
H       10.57162454      15.21344311       6.97254059      -0.01479934      -0.00242807      -0.05582097       0.86556047       0.20846759      -0.59156847
H        9.95789574      16.75356272       6.30127707       0.19363646      -0.09118223      -0.08665196       1.20355082      -0.16694066       0.91751134
C        7.41177787      17.53402772      11.98295729       0.74022435       0.30415372       0.31859589       0.49683642       0.41172245       0.75749314
C        8.70634511      16.73621291      11.90085980      -0.62359808       0.14918537      -0.14886126       0.55629718       2.21193385      -1.19891751
O        9.63005039      17.33778871      10.99270860      -1.19576078      -0.78309373       0.46640531       0.71397436      -2.09341502       1.72519863
O        8.95767337      15.77129759      12.58318556       0.08377436      -0.18230262       0.67841660       0.32206899      -0.81139445       0.36998805
H       10.56571777      16.81397357      11.18587490      -0.19439267      -0.09108529      -0.03982579      -1.30462420       0.63819987      -0.57606822
H        6.62374808      16.95060687      11.52694327       0.09562856      -0.42206362      -0.27091490      -0.47108534      -0.31211424      -0.11186512
H        7.47598627      18.50388192      11.47677339       0.20814030       0.19668593       0.11343916       0.15927732      -0.17802569      -0.09470432
H        7.13530360      17.74830229      13.05385406      -0.07698235      -0.09186851       0.03413333       0.25743681      -0.42740083      -0.74762785
C       18.77664403      -4.64469626      -1.14140278      -0.61979075      -0.72262708       0.54800771      -1.24663389       1.29053891       1.41586232
C       17.67542641      -4.02391001      -1.93911514      -0.58775220      -0.22264334       0.19683669       0.52032900      -0.90557098      -1.06110215
O       16.95968390      -4.66707975      -2.71846221       0.01513053       1.03699691      -0.01578827      -0.03844243       0.09756756       0.25727096
O       17.65635173      -2.69260163      -1.88419405       0.47675351       0.62593072      -0.11929815      -0.45765945       0.43063283      -0.30541039
H       15.04553377       1.97756394      -1.80197674      -0.11218509       0.08246893      -0.25178752      -0.65922177       0.28623450      -0.47859693
H       18.34153711      -4.78740225      -0.12301004      -0.16795178      -0.12235839       0.08633518       0.43001863      -0.21200322      -0.43991065
H       19.60215454      -3.95563926      -1.04510600       0.03216274       0.09441828      -0.02102718       0.37989718       0.20985222       0.13587351
H       19.07170677      -5.55321527      -1.57128160       0.01037409       0.19568120       0.07040122       0.34726828      -1.38668466      -0.33981907
C      -11.56281783      22.20958654       6.41776315       0.05611280      -0.56678552      -0.52417058      -0.26304466      -1.05775237       0.75727808
C      -10.86178520      23.21511543       7.28778038      -0.01467302      -0.55459493      -0.58693432       0.76934499      -0.43482345      -0.36087209
O      -10.66382833      23.05365022       8.49396957       0.26635363      -0.21200274      -0.28365335      -0.28066140       0.25196692      -0.17066771
O        8.82358928      24.24912278       6.61526633       0.10545632       0.12115437       0.64304806       0.80381334       0.40608627       1.96852732
H        7.37195305      11.92782021      -5.74839662       0.05278634       0.19824714      -0.03132091      -0.69397593       0.23273316      -0.19317733
H      -10.84491991      21.51442978       5.96440362      -0.03102856       0.30058499      -0.10434792       0.27559817       0.11447603      -0.11215296
H      -12.16883750      22.59992691       5.61344094      -0.12017610       0.15680753       0.11452979      -0.31626320       0.36530244      -0.09100968
H      -12.13008566      21.54426909       7.08899729       0.08688851       0.11945373      -0.12685900      -0.24415872       0.29749748      -0.23290019
C        3.14017963      -3.12935525      -3.10717784      -0.63107089      -0.69568376      -0.13217942       0.72561657      -1.32903612      -0.12850013
C        2.94645091      -2.10276023      -4.18371147       0.46054209      -0.26953847      -0.91486531       0.59800380      -0.33250046       1.08793521
O        1.73111533      -2.17302468      -4.72665872       1.12861412      -1.38463501      -0.82652946      -0.33461595       0.83358717      -1.10989082
O        3.86761279      17.80544100      -4.46645974      -0.60374494       0.88050298      -0.10019225       0.19219744       0.69524950      -0.88454449
H      -10.63290746      24.29231698       5.67931264       0.05100408       0.02819391      -0.09156108      -0.66498041      -0.15124735      -1.40784752
H        3.71421415      -3.95475893      -3.60926881       0.01970736      -0.00407749      -0.08205021      -0.45103717       0.14330497       0.21788463
H        2.18198814      -3.55757010      -2.78202809      -0.19940181       0.07642905      -0.14808026       0.28363934       0.18115661       0.25679213
H        3.85743801      -2.85733001      -2.29710841       0.33937821       0.06539218       0.09998628      -0.85073096       0.35875973      -0.39808697
C       -3.58347119       6.81453626      13.27991664      -0.42196605       1.23499328       0.20470483       1.06879008       0.01895383      -1.80961251
C       15.25454809       6.71390216      11.74940135       0.24656390       0.26847765      -0.25082539       0.33345219      -0.48636603       0.24753356
O       14.02409440       6.26962640      11.37354804       1.25525817       0.36201660       0.63916763      -0.18812287       0.04647502       0.48033899
O       -3.05011558       6.95541072      10.90178504      -0.55081391       0.82748377       0.49732190       0.48181593       0.39199004      -0.17474791
H       24.00260029      -0.01845471       7.50573247       0.34019271      -0.06784795      -0.01618792       0.10411867      -0.01573366      -0.10196316
H       -4.46760664       7.16023764      13.76086119      -0.23615891       0.22206885      -0.01667685      -0.84132642      -0.01318969       0.88778019
H       -2.78332701       7.59029887      13.41062941       0.05601013      -0.20743398       0.04958767      -0.68151188      -0.50346869      -0.27334031
H       -3.15810065       5.85780780      13.65577601      -0.22465686       0.09810062       0.05522452      -0.66726923       0.33513796       0.00383651
C       24.85663801      22.66462510      17.58827633       0.61693479      -0.99633292      -1.08259185      -0.93792999      -2.31558704       1.60314870
C       24.63121575      22.39835896      16.12648533       0.68487081      -0.01092083       0.21821969      -0.78940225       0.96628892      -1.18165958
O       23.80836547      23.13670186      15.51920791       2.17435233      -1.57395812       0.09781382       0.94665056      -1.25492191       0.39816406
O       25.37054464      21.41796101      15.53925693      -0.37882432      -0.13700981      -0.25404139      -0.54555219       1.21731448       0.49590972
H       25.25350198       2.27704402      14.45937335       0.05287691      -0.11708347       0.40569382      -0.38713515      -0.34805515       0.22497432
H       25.83260788      23.06602345      17.77255018      -0.01495999      -0.00531500       0.11205561       1.01624751       0.16542152       0.09128907
H       24.77335143      21.65094776      18.20499335      -0.39448198      -0.11748873      -0.08497269       0.11779940       1.98590028      -1.07402027
H       24.13667707      23.41293898      17.99772790       0.16885323       0.28713718       0.09355590       0.22749650      -0.67688310      -0.51391882
C        0.09666276      20.22120812      10.96689369      -0.10576365      -0.09191814       0.61639712       0.03909411      -0.81194305      -0.93432522
C        0.42695955      19.46443775      12.22854080       0.39259461      -0.66007371      -0.46095213       0.41320950       0.34602261      -0.00092018
O        0.08425525      20.04046410      -5.82217514       0.93010832      -0.18850300      -1.10741500      -0.16888928       0.12171060       0.23505241
O        1.08675880      18.39327156      -7.07849966       0.00742827       0.90889167       0.87166969       0.18961328      -0.31850982       1.14201009
H        1.84898892      14.50311659      11.51064463       0.35968030      -0.18833593       0.02122985       0.08598152      -0.43095538      -0.39367771
H       -0.19222972      21.24347679      11.18161516       0.07986520       0.36767045       0.03954759       0.26973900       0.43142402      -0.04111316
H       -0.80665762      19.75336067      10.48590407      -0.28187992      -0.02553941      -0.14423748       0.91639137       0.14298785       0.08109032
H        1.03050230      20.10212274      10.33716006       0.31926998      -0.03146891       0.13558301      -1.27288580       0.42525283       0.15472279
C       11.14960963      12.42512761       4.88353256      -0.03924019       0.09483054       0.97052183      -0.50740051      -0.22940433       1.16274548
C       10.38555089      11.60708271       5.95097824       0.78231774      -0.70013777      -0.36139582      -0.49493927       1.19321811      -0.99159998
O        9.45644266      12.13654825       6.58643323       0.95639999       0.50668105      -0.23167828      -0.61043274       1.05303681       0.55340469
O       10.63181932      10.36944671       6.05090884       1.37070912      -0.73173475      -0.47716795       1.91341209      -1.36259305      -1.39615870
H        8.93998642      12.80777790       7.84767630      -0.01376882       0.03912445      -0.06874157      -0.20012608      -0.19007875      -0.11198202
H       12.14803504      12.01674475       4.84693126      -0.13874290      -0.22726842      -0.09860251       0.77388215       0.36012995       0.19569978
H       11.05132990      13.52376392       5.08131067       0.05823798      -0.10729439      -0.02961502       0.26994258      -0.98928475      -0.29506969
H       10.77594121      12.16205640       3.90036039       0.02723923      -0.07443296       0.14552459      -0.55149931       0.23148558      -0.46246961
C        4.01994039       0.40674216      22.43997826       0.07661343       0.12635344      -0.73923349       0.66712964      -0.97342098      -0.62858814
C        4.01172536       1.51395433      21.43160401       1.06653889       1.41770031      -1.05247174      -0.85238242      -1.66414165      -2.16927481
O        4.18627133      20.37665876      20.21108089       0.51876735      -0.62726081       0.43675211       0.12229597       1.10713243       1.34988511
O        3.72812927       2.72594104      21.87328760       0.88335724       0.41824376       0.81190471      -0.65044212       0.28064096       0.15273970
H       22.26516409       2.61628143      22.74282156      -0.00894584       0.05250216       0.10674026       0.51472151       0.59665495       0.17153874
H        4.50766162      18.70210769      21.99090390       0.18078776      -0.13743301      -0.32895692       0.40506303      -0.28425351      -0.51668507
H        3.11739550      -0.07070778      22.82528235      -0.02370937       0.14467444       0.07363786      -0.50074840       0.92484552       0.17556307
H        4.68567904       0.70021536      23.21484636       0.08630954      -0.05564156       0.06159578       0.42354721       0.22698864       1.38959038
C       12.99996549       5.05541671       6.86850347       0.03352232       0.03978230      -1.15374926       2.87516737       1.34034014       2.44974470
C       13.34544646       6.36919992       7.62770984       0.48519806       0.24565805      -0.89250576       0.27479944      -0.50392354       0.75460571
O       13.95888006       7.21543929      25.99636245       0.51071282      -0.38924991      -0.12312352       0.07481104       1.04873419       0.46099061
O       13.09826968       6.61524336       8.85455293      -0.52091058      -0.22381985       0.23753047       0.07206565      -0.58522010      -1.37755799
H       14.11506775       8.20690825       7.40290147       0.06073183      -0.05474637      -0.11443988       0.04811710       0.01616141      -0.99366236
H       12.59421381       4.43954971       7.62781169       0.11294392      -0.22739146      -0.02122456      -0.57367241      -1.04703271       0.74639821
H       14.02397632       4.63113637      25.72519390      -0.03153818       0.22784130      -0.24500905      -1.67984390       0.48958793      -0.39976093
H       12.23945737       5.35574606       6.21238627      -0.27447845       0.17781869      -0.07393968      -0.80063742      -0.12134729      -1.76008987
C        9.42962867      23.84587172      -0.30782330      -0.71897094      -0.65848819       0.01166378      -1.73822963      -1.15039766       0.39283863
C        9.89140105      22.85888778       0.76921332       0.54177207      -0.17650049       0.18409547      -1.91545987      -0.49584150       0.74923050
O        9.09762341      22.02864309       1.28698734      -0.47047674      -0.11965788       0.13111522       0.89945531       0.80599779      -0.63327813
O       11.14162560      23.01120204       1.15324065      -0.19805909       0.13004766       0.62030512       0.42459691       0.13709569       0.04956537
H        0.64948548      20.03475791      -4.54807656       0.10511064      -0.05285507       0.23330798       0.41760564      -0.66046172      -0.18713313
H        8.52198758      24.46888183       0.03997682       0.01277272      -0.17999158       0.25865172       1.49363732      -0.81706339      -0.42483491
H        9.07482791      23.21019837      -1.16683960       0.23844344       0.05752831       0.07880230       0.30660206       0.70747888       0.48549700
H       10.27757241      24.42968322      -0.58002962      -0.11822140      -0.07443098       0.42252492       0.46572211       0.90107501      -0.49380904
C        5.02783984      10.93491655      10.72139995       0.20262024       0.19145489       0.63894351      -1.79810691       2.27126837      -1.61689734
N        3.74087377      11.26989490       9.87741393      -0.15679731      -0.46949058      -0.51513794      -0.92910409      -1.90443230       1.80452466
C        3.74672671      11.32021283       8.49114392       0.20551546      -0.12354746       0.76468657       0.10377622      -1.11101842      -0.11094138
C        2.51202342      10.79209728       8.07086949      -0.19029220      -0.48771081       2.53594637       0.74226427       1.21897733      -1.71229684
N        1.73082305      10.46848769       9.13194972       0.90863124      -0.70813121       0.24034169      -0.00303793      -0.30568019       0.84905875
C        2.46668765      10.70087245      10.20869938      -0.23453074       0.12525010       0.95626593       0.63869947       0.94524270       0.45917249
H        5.31190962      11.81734428      11.31017116      -0.08582843      -0.25536559       0.21506422       0.06559531      -0.14375561      -0.19325335
H        5.72577030      10.71683550       9.94974325      -0.08576673       0.43003924      -0.21401295       1.06843650      -0.21227163      -0.41224676
H        4.90381869      10.10461717      11.35893781       0.17741983       0.14404353      -0.14978900      -0.51794410      -1.18318331       0.59773564
H        4.72817178      11.37329234       8.01243986       0.25279941       0.18558705       0.03215136      -0.45281261       0.33688277      -0.21359828
H        2.10712570      10.71277978       7.02458039      -0.44634376       0.14895039      -0.12254403       0.56420088       0.18033783       1.14193058
H        2.08423558      10.55876183      11.23953476       0.11885975       0.10965208       0.19129930       0.64208579       0.19385067      -0.64397323
C        0.55678224      18.68931804      18.95334081       0.07521640      -0.95816188       0.62312181       0.34430876      -2.67749715      -0.08325273
N        1.01008167      19.04933340      17.64244123      -0.42080529      -0.52814591       0.73754956       2.31810021       0.42222482      -0.08107799
C        2.26943572      19.67056189      17.48368359       0.02924172      -0.23086413       0.14928664      -1.73689580       0.16246352      -0.86090255
C        2.22644183      20.25666026      16.24266574      -0.60007753       0.31077617      -0.20808948      -0.18381494      -0.53240120       0.33347607
N        1.06166110      19.80845350      15.64618458       0.20946349       0.59814468       0.46804857       0.20284227       1.76381087      -2.44584537
C        0.35232212      19.10576252      16.46557181       0.09631840       0.46077695      -0.07955414      -0.08255726      -0.62508607       2.94814777
H       -0.50714401      -0.61491690      18.93130261      -0.02288763      -0.06858869      -0.21232180      -0.58971941      -0.60154492      -0.04489873
H        0.70804721       0.35458429      19.58450406      -0.13920899       0.06734835       0.12953276       0.61241865       1.45508611       1.34100974
H        1.13988568      17.76188739      19.30995897      -0.06458823       0.01920953       0.06095843      -1.05454397       1.25088799      -0.25346595
H        2.99798903      19.63317157      18.25077262       0.17590629      -0.25429583      -0.27437635       0.68810296       0.05520235       0.64489746
H        2.81306804      21.05162693      15.81861055       0.01489807       0.03961186      -0.02831120       0.25720203      -0.07400388      -0.28507841
H       -0.61811383      18.69463876      16.50045666      -0.18793066       0.01830198      -0.02177006      -1.02279294      -0.20029174      -1.01786458
C        9.85822648      21.27940795      11.46071704       0.33582817       0.17969055       0.05917213       0.80736548      -0.44254214      -1.22238898
N       11.02279206      21.08790038      10.57529741      -0.33934870       0.53167513      -0.07052544       1.73307228       0.51795888      -1.42477500
C       11.70007496      19.90539952      10.16997990       0.55035005      -0.37762633       0.52332021      -0.60651642       1.09995854       0.00719297
C       12.87459636      20.25835699       9.54123108      -1.05979069       0.20855012      -0.83937616      -0.57046807      -0.02685606       0.20799458
N       12.97390763      21.64909889       9.52785997       1.29372449      -0.70497668      -0.75624753      -0.27624261      -0.33772528       0.21860725
C       11.89103944      22.09982766      10.18982432       0.11631013      -1.01797442      -0.28230840       0.98664010       1.20284867      -0.19756731
H       10.27094910      21.89450499      12.21959955      -0.09402897       0.16399991      -0.06323570      -0.32233602       1.08591580       1.12876236
H        9.79112996      20.30398086      11.89435088      -0.26864151      -0.19957316      -0.00783348      -1.10230887      -0.74550569       0.42021173
H        8.92988022      21.68452667      10.97134261       0.29173421      -0.17034752       0.18287826       1.05631363      -0.52573419       0.24023148
H       11.20051054      18.97645386      10.12613357       0.38230665      -0.05414789       0.18003865      -0.54252940      -0.82957745       0.24156922
H       13.58021672      19.51695252       9.10929818       0.18410710       0.24341738      -0.14568002      -0.28973180       0.92431360       0.25316453
H       11.92026704      23.20776620      10.48815133       0.10522163       0.27201883       0.08879774      -0.83166784      -1.81075919      -0.14989892
C        6.70064357      18.46728847      16.73907007       0.01029425       0.21332169       0.31702847       0.11163688      -1.54898584       0.11625040
N        6.65386492      17.46588512      17.85022797       0.38642152      -0.04573365       0.30710024       0.16506824      -0.87196338      -0.57406557
C        7.45156938      16.30653723      18.02059830       0.21988960      -0.50965201      -1.03302161       0.20253630       1.29453111       1.16557288
C        7.18137926      15.86974071      19.29696136      -1.25854480       0.38218980       0.07279478      -0.16896361      -0.77105457       1.15490961
N        6.00863018      16.46145714      19.76490367      -0.17447667      -0.88262405       0.76615492       1.34202564      -0.90145755       0.82427585
C        5.79128649      17.40769408      18.91662126       0.66021986      -1.41387332      -0.07773225      -1.48442638       2.47747540      -1.00182819
H        7.73169581      18.53746490      16.40320542      -0.16940692      -0.31206716      -0.05409299       0.32470149      -0.02593899       0.04215635
H        6.38076604      19.45728904      17.02839161      -0.11113498       0.03279351      -0.19117877      -0.35519913       0.21638602       0.31471327
H        6.12487712      18.07307590      15.89007890      -0.44466305       0.38067364       0.16865787      -0.23219737       0.27528748       0.06967811
H        8.10647140      15.85577242      17.32219425       0.07769878       0.13904224       0.05308177       0.29714549       0.13860583      -0.86918938
H        7.84885489      15.43069085      20.08636294       0.27358921       0.26132717       0.02112129      -0.56996268       0.00854290      -1.16734004
H        4.98112405      18.13180780      19.03817182      -0.16493538      -0.06168049       0.11409894       0.23699120      -0.02809632      -0.14563376
C        7.70016169      13.32648384      22.92590365       0.15948116       0.80553838      -0.39664523      -1.40260875      -0.71235365       0.07489544
N        6.94739575      14.50537078      23.42990532      -0.30110717      -0.05761826       0.61607343       0.82481456      -1.02819633      -0.03112340
C        5.58111423      14.72734882      23.37452368       0.51202706      -0.74405604      -0.17876419       0.77855021       0.34601384      -0.74258864
C        5.37805040      16.05302414      23.69151922      -0.07204547       0.55576238      -0.30792578       0.59829342      -1.40733480       0.37589365
N        6.59117048      16.51569320      24.13603590       0.35491366      -1.04363742       0.25836265       0.29530320      -1.49915481      -1.28436410
C        7.56852448      15.57723475      23.93407175       0.48206126       0.27845777      -0.12728517      -1.58839190       0.71728498       0.92935455
H        8.41766540      12.96045088      23.67082275       0.05776011      -0.13765733       0.05329499      -0.12127045       0.35088643      -0.08379373
H        8.16800677      13.57661204      21.96886959      -0.09223363       0.06579015      -0.32495294       0.07660156      -0.02268779       0.21499974
H        6.94533644      12.51213826      22.76397439       0.16041963      -0.19297671       0.14045786       0.54873031       0.63528699       0.04415032
H        4.93800855      13.93846934      23.05118808       0.37096083       0.12510610       0.19869234      -0.52870834      -0.22532165      -0.11242855
H        4.44671095      16.57538862      23.63152809      -0.06209326      -0.03525689       0.21816962      -0.09214926       0.59738511       0.14202870
H        8.49235624      15.54987866      24.50248443       0.09701357       0.01420380       0.09693848       0.14924213       0.00229114      -0.39084649
C       13.46075127      -0.34209056      13.46146401      -0.90024225       0.36361198      -0.60602077       0.01652968      -0.62629175      -2.57535148