640
Lattice="19.152215 0.0 0.0 0.0 19.152215 0.0 0.0 0.0 19.152215" Properties=species:S:1:pos:R:3:momenta:R:3:forces:R:3 energy=-80134.9296875 stress="-0.014408223330974579 0.0008434641640633345 -0.00044613174395635724 0.0008434641640633345 -0.014807316474616528 -0.0008730601985007524 -0.00044613174395635724 -0.0008730601985007524 -0.0191388837993145" pbc="T T T"
C       15.51032204       5.47192520      16.78580039       0.65709927       1.65703160      -0.88284796      -1.19776726       1.60754085       0.12359738
C       16.28880188       4.71484034      17.80200255       0.52765674      -0.65829057      -1.33525303       0.58569539      -1.40880930      -0.91742563
O       17.21032414       3.85555148      17.44917467      -0.12986616      -0.85279188      -0.45946603       1.05112100      -1.08587921      -1.33481216
O       16.10814708       4.84499943      19.00162191      -0.54352659       1.02631786      -0.36944317      -0.88651717       0.93112063       1.95509458
H       17.25738792       3.50129351      16.37276913      -0.06304103      -0.03401749       0.05194832      -0.62070942       0.76451766      -0.19366196
H       14.77314827       6.04628544      17.40948533       0.34205072      -0.06061177      -0.09375727       0.52926135      -0.03321334      -0.74171972
H       14.90862344       4.94292981      16.01509450       0.55199960      -0.34162852       0.04162987       0.66021091      -0.43123239       0.41967404
H       16.19069308       6.17711691      16.26444502      -0.13837196       0.15427020      -0.29694788      -0.35035223      -0.14556020       0.08324949
C       10.55540898      13.27767394      16.81453273      -0.22157925      -0.48988404       0.19256157       0.30562484      -0.64380097       0.31471169
C       11.60048575      13.65809070      15.77630771       0.71124908      -0.03650038       0.20025899       0.07014811       1.05991697       0.16226727
O       11.71854947      14.97945415      15.43151258      -0.25594764      -1.01455191       0.73094532      -0.08361387      -0.60042429       0.81422669
O       12.30033388      12.80297762      15.23340579      -0.08405137      -0.24563712      -0.37523924       0.11230910       0.17156595      -0.09420544
H       14.54188520      13.14114327       1.53585094      -0.17669605       0.19105234       0.03541107       0.37365082       0.67779559      -0.47696227
H        9.58464344      13.45067593      16.31375732       0.27012013       0.45564307      -0.18228033      -0.13204670       0.11096247       0.56425077
H       10.66501633      13.77232529      17.82575017      -0.23262987       0.19968819       0.01151788      -0.16370066      -0.16308904      -1.17721379
H       10.66058097      12.17394830      16.96278677      -0.05573945      -0.07787654       0.28918055      -0.18393363       0.67853844      -0.04214276
C       -1.68121584       6.40440778       8.31679876       0.31462994      -0.26700242       0.59510387       1.17573285      -1.77146089      -1.74789000
C       -1.64123555       6.09473090       6.78243118      -0.82261682      -0.59495711      -0.61898338       0.82772577       2.39979839       1.19534600
O       -1.81192240       4.89097532       6.31473132      -1.26676752       0.64089217       0.28572330      -0.52354783      -2.02511048      -0.34833622
O       -1.32825400       7.00377693       5.98681640       0.70591395      -0.46300409       1.29251766      -0.28334913      -0.16402176       0.19248730
H        3.63501760      19.61973447       8.40911885       0.01439724       0.16025048      -0.17436496      -0.73894197      -0.16076586      -0.07621473
H       -1.15145455       5.54454874       8.76950631      -0.06789894      -0.09912978       0.13986698       0.40349153       0.52713597       0.31389576
H       -2.64521000       6.26364236       8.73039803       0.04130720       0.00528420       0.12303591      -1.47800660       0.30072066       0.35217321
H       -1.21438522       7.36437760       8.55050745       0.05894697      -0.15969479      -0.06724914      -0.09095959      -0.20175137      -0.08152829
C        9.29456935      15.21769519       2.00579148      -0.80398286      -0.09030433      -0.23434306       1.19117439      -0.37462956       0.18836157
C        8.37711458      14.03452148       1.95717810       0.60806385      -0.23226518      -0.17924373      -1.60432088      -0.43795204      -0.58191681
O        7.37386836      13.89876958       2.67369323      -0.26944600       0.26222871      -1.28570598       0.57106686       0.05038625      -0.09203076
O        8.66082710      13.12927878       0.97689906       1.55879233       0.12869742      -0.76674068       0.28952038       0.69306356       0.39897126
H        7.95507477      12.42372030       0.94595830       0.15422471      -0.12514243      -0.21616413      -0.15953034      -0.09841179      -0.15126380
H        8.82034420      16.19701448       2.19002892       0.19153621      -0.36668544      -0.13037900      -0.20852450      -0.50949299      -0.25017515
H       10.00035794      -3.93026799       1.15128705       0.20029430      -0.16801070       0.41586323      -0.41202378       0.08062965       0.24368614
H        9.92831016      -4.15219087       2.88748570      -0.18764859       0.05319873       0.03842157       0.09645756       0.25894144       0.00579837
C       11.00555693      17.04059884       7.34404945       0.45475923      -0.34194757       1.19778654       2.28986001       0.84926599      -0.57449496
C       12.44995215      17.45588855       6.92390115       1.11818522       0.69524270       0.26421833      -1.12185335      -0.52945405      -0.24543186
O       12.60130588      18.44955633       5.98901821      -0.46113746       0.23286630      -0.19919401      -2.56132030       0.02520090       0.34550244
O       13.40649615      16.84077737       7.35417368       1.22631984      -0.50345793       0.77984572       1.39537084      -0.04072055       0.23625252
H       16.82476773      16.99520108      16.21567606       0.19634779      -0.11534672       0.34169102       0.53059274       0.35016525      -0.12542880
H       10.54257278      17.03630462       6.35779379       0.23736834       0.12351743       0.05260681      -1.24165130       0.36519241       0.37175921
H       10.79015962      17.80624029       8.12363052       0.17865969      -0.26740910       0.17315986      -0.98359555      -0.25057992      -0.57388896
H       11.00756042      16.02399396       7.73964549      -0.23068112       0.01766712       0.06190955       0.09196581       0.11055296       0.16841681
C        8.30323106      15.72974037      14.20558541      -0.13347246      -0.61794435       1.15534966       1.03329921      -0.53394365       0.35333854
C        9.25136417      16.13242323      13.10478711      -0.16283028      -0.37024939      -0.26374140       1.85143507       0.61946589       1.01007700
O        9.66636931      15.05748907      12.38620631       0.77398780      -0.17865587       0.71408691      -2.14430904       0.59520769       0.54591578
O        9.73567634      17.28599242      13.08598669       0.57548465      -0.86951026       1.11334844      -0.40669215      -1.17531073      -0.68809617
H       10.59854651      15.02526689      12.07604558      -0.12746612       0.32909114       0.10575184       1.78484666       0.52508771      -0.38685054
H        8.94922390      15.45419184      15.07740193       0.16533641       0.26921507       0.10678708      -0.23107021       0.24562776      -0.35050103
H        7.88387539      14.79267230      13.88877218       0.01444537      -0.19324662      -0.11012971      -1.02464962      -0.41801697       0.10557096
H        7.65534694      16.52459966      14.55356959      -0.21679423      -0.13357304      -0.17517198      -0.38838056       0.15240422      -0.26980338
C       18.30393601      -4.61786262      -0.74377051       0.59532814       0.80537454       0.80342800       1.26039398       1.12076819      -0.58421636
C       17.54680452      -3.92615468      -1.87998229      -0.09784507      -0.31272173       1.38008737      -1.08150077      -1.13463521       0.21625602
O       16.85952750      -4.67808662      -2.66554594      -0.12876545      -0.81763792       0.81201327       0.86786360       1.52142143       0.40385795
O       17.63621705      -2.61765987      -1.89677323      -0.29479847       1.25192810      -0.36851591      -0.66094512      -0.85547316      -0.73673898
H       14.80379861       1.76487513      -2.63327742       0.06804181      -0.06678441      -0.07851865      -0.02871922      -0.41067529       0.06058896
H       19.24402486      -3.97647984      -0.67410539      -0.20119633      -0.20894719       0.18458249      -0.75240064      -1.25079441       0.35401189
H       18.48426355      -5.67367591      -0.98794954      -0.02309942       0.05509771      -0.09653646       0.20750858       0.30189294      -0.00326640
H       17.78650520      -4.58225255       0.22019658      -0.12622281       0.10795826      -0.04576110      -0.08652329       0.30398649      -0.01763073
C      -10.86322387      24.05606772       6.75031424       0.00462889       0.34506949      -0.29297377       0.63465887       0.46061838      -1.64864051
C       -9.44837921      23.87215696       6.08171077      -0.92976651      -1.14616517       0.34968405      -2.10814810       1.10390878      -0.19494784
O       -8.65886767      23.09044258       6.61472404      -0.45908614       0.70978342      -0.08621773       1.37741721      -0.91507626       0.60865521
O        9.93868931      24.52375418       4.98550727      -0.34171580       0.78259560      -0.35785642      -0.34225368       0.04603249      -0.06467986
H        7.50667647      12.20631516      -5.27953150       0.05574066      -0.10730766      -0.09894405       0.78118306       0.05223989       0.59475851
H      -10.98887584      23.45891052       7.59988956      -0.05498026      -0.00792445      -0.09600430       0.37137085      -0.90139496       1.74390316
H      -11.67000406      23.64658600       6.11574017      -0.11813095      -0.19836016       0.12257370       0.18752180       0.61874187      -0.40129417
H      -11.05689843      25.10605564       7.02668574      -0.05698301       0.05837271      -0.01395794      -0.11669335      -0.23679313      -0.29766405
C        4.08721093      -3.18248450      -3.62229510       0.40854058      -0.18734469      -0.00639249      -0.31869596      -0.66382849      -0.53442645
C        2.87460974      -2.56193911      -4.21368858      -0.29592963       0.61877206      -0.07543397       0.90912044       1.82321382      -0.16991171
O        3.24303005      -1.61989306      -5.08270220      -0.37092231      -0.05555726       0.29019623       0.98113608       0.22141489      -0.90651464
O        1.71849840      16.42867442      -3.91826525      -0.11747144      -0.67690928      -0.10512903      -1.47770786      -1.16418445       0.89377218
H      -10.38209181      25.04795665       4.35884241       0.00661961      -0.08645211      -0.12975467       0.47957063       0.56057703       0.16244471
H        4.20946595      -4.12298590      -4.13492454       0.05168672       0.00830235       0.06514894       0.34087071      -0.74406481      -0.21660689
H        3.91907723      -3.38811219      -2.60287231      -0.26698674      -0.23169791      -0.06225461      -0.29652661      -0.39935389       1.53803992
H        4.98542159      -2.60873751      -3.73164702      -0.25660340      -0.11771613      -0.24403490       0.45187485       0.59190440      -0.29856271
C       -4.37054371       6.82098006      12.95790812       0.02034508       0.18181224       0.04628868      -0.31643271      -0.15368380       0.26041484
C       14.66990923       6.54342936      11.46828220      -0.44883886      -0.29711375      -0.32231970       0.39585629      -1.01481819       0.38876820
O       13.53250323       7.07348323      11.02925188       0.78534187       1.13495430       0.50692927      -0.76150751       0.78585386      -1.86406755
O       -3.72281822       5.86277420      10.76117124      -0.83301460      -0.60251454      -0.10063800      -0.35150272       0.58572102       0.50074530
H       26.42491756      -1.50593610       7.89442252       0.05463238       0.00816249       0.15877072       0.23670539      -0.16019005       0.31499022
H       -5.12272894       6.15865865      13.48637933      -0.08678923      -0.14567609      -0.13684746       1.19685137       0.09472647      -0.28314155
H       -4.79061535       7.81328868      13.15987504      -0.03907385      -0.13121069       0.23569237       0.22846761       0.28981811      -0.16305718
H       -3.31994243       6.79473483      13.31912329       0.17255447      -0.05624722       0.15475521      -0.69334275      -0.45215362      -0.00316980
C       26.08443409      23.34291119      18.14838948      -0.13926771       0.62024476      -0.02920329       3.16472340      -1.32432079       1.73754013
C       25.90742779      22.79890050      16.78180800      -0.42998464      -1.02526190       0.00728188      -2.26071739       1.01393783       0.47662425
O       24.86548086      23.10124346      16.18192062      -0.64143420      -0.40203797      -0.55481907      -0.63156712       0.07753092      -0.49506444
O       26.80740079      22.03933496      16.26718057      -0.96539049       0.10123050      -0.64087995       1.90710413      -1.82211030      -0.43779528
H       26.46315910       2.45146833      15.37027362       0.29668023      -0.17443868      -0.03062491      -0.12372708       0.25984508      -0.18017854
H       27.03763068      23.94550028      18.22569894      -0.07675564       0.25219740       0.18172228      -0.72084033      -0.47744322      -0.01921662
H       26.16022628      22.56785987      19.00430602       0.02758920      -0.12036962       0.13532557      -0.13805294       0.76143998      -1.46688116
H       25.26201811      23.94723281      18.35789710      -0.24826695       0.08149121      -0.04634941      -1.44810355       1.23218751       0.44301438
C        0.51824525      19.74011141      10.68875091       0.22677920      -0.23797459      -0.46850180      -1.50611103       0.63836139      -0.53776085
C        0.87470938      19.62032534      12.15322698      -0.64444204       0.63293210       0.11050122       1.84346592       0.10481490      -1.90548825
O        0.82669910      20.76926883      -6.37867001       0.07407381       0.08364561       0.11276952      -0.63128138       0.57948577       1.64654052
O        1.46714150      18.59789560      -6.60734311      -0.52619878       1.63840200      -0.29795509      -0.92701185      -0.37842143       0.36842573
H        1.94525047      14.68998051      11.46733721       0.07716822      -0.08350172       0.18891088       0.56816274       0.41490811       0.37919211
H       -0.38416922      20.35581132      10.44580687       0.22705453      -0.11525476      -0.12340583       0.74333012       0.33227694       0.58646405
H        0.20702308      18.82876030      10.23983240      -0.14515372       0.07645470       0.03168177      -0.18453559      -1.63396442       0.16243821
H        1.34030026      20.01166981      10.02696875      -0.05765975       0.17246276      -0.32759125       0.46538180       0.53370231       0.24653593
C        9.12176268      11.80914532       4.67587748       0.15367657       0.44393546      -0.69562479       2.25452423       0.74764067      -0.10752434
C        9.10231470      11.15799518       6.04541651      -0.40165117      -0.20188257       0.31301490      -0.56274086      -0.90449089       0.44368768
O        8.86480269      11.85055071       7.07501283      -1.74604670       0.01340493      -0.07810707       0.46288320      -0.70747566      -1.04119194
O        9.26354218       9.81352045       6.03054490      -0.14789163      -1.05551437       0.66295925      -0.34831274       1.67363787       0.23951209
H        8.47725029      12.69702359       8.41556719       0.10592353       0.18091521      -0.12341608      -0.39777642       0.06956652       0.35395190
H        9.83329439      12.73105164       4.63260026      -0.10037702       0.28747567       0.06883669      -1.18095708      -1.32529950       0.31511432
H        8.15378551      12.12618173       4.34944222      -0.07566550       0.04080152      -0.05712926      -0.88991094       0.43607160       0.02007648
H        9.48777643      11.11573482       3.90968295       0.08729859       0.29258824      -0.11986235       0.00518957      -0.11659860       0.12298901
C        4.62594031       1.25073193      22.60133232       0.14602572      -0.99595818      -0.67496998      -0.03235465       1.24899828      -1.85199261
C        5.48333200       2.39688765      22.08934662       0.63504701      -0.70416208      -0.00964410       0.96295142       0.57288396       2.76383424
O        6.09148369      21.46627667      21.04237427       1.49555550      -0.30914830      -0.21436645       0.46751583       0.17508721      -1.97602105
O        5.74065376       3.43370676      22.95430199       0.29115675      -0.48619077      -0.23663721      -0.92494059      -1.23632646      -0.69840962
H       24.04901362       3.55440145      23.83590864       0.05610502       0.00363226       0.02019177       0.05348304       0.16507137      -0.91849065
H        4.83394155      19.48573050      22.07373874      -0.11786406       0.10748252      -0.29830836       0.63045305      -0.50734288       0.01072818
H        3.63675754       1.48185715      22.20964145      -0.04903129      -0.02781475      -0.16476424      -0.75921750       0.15630472       0.57251322
H        4.73817749       1.22659967      23.64784081      -0.25914753      -0.08111869      -0.14655961      -0.50673813      -0.52107233       1.39954889
C       13.50806516       5.72408369       6.76940083      -0.32530059      -0.90848466      -0.17164731       0.03615147       0.64658070      -2.16411686
C       13.32266337       7.05042428       7.32748439       1.06929999      -0.04364782      -0.19796428      -1.28576732       2.24463725       1.84332705
O       13.76827642       8.09311681      25.81964597       0.15085304      -0.05027848       0.64769753       0.17899799       0.09115753       0.06833816
O       12.69288389       7.19733589       8.43224445      -0.58856793       0.20039116       0.10994503       0.66091204      -0.29732218      -0.37236720
H       13.51116478       9.10136731       7.25644985       0.10771916      -0.03549857       0.01402438      -0.17954786      -0.18769616      -0.26492935
H       14.05879012       5.17558478       7.46122451       0.06921999       0.03157735      -0.07866896       0.91454995      -1.45769465       1.45240533
H       14.09363229       5.82939019      25.00554736      -0.18374848       0.09073799       0.22561041      -0.10492942      -0.31132227      -0.23800454
H       12.53255986       5.29218976       6.59184771       0.11180221       0.29101868      -0.48674849      -0.38947675      -0.50711507      -0.10844219
C       11.99704902      23.17312887      -0.65268201      -0.27753923      -0.31481923      -0.82442061       0.36090928       1.94952857       0.61319029
C       11.10093457      24.08926192       0.29929282       0.39290529       0.40801315       0.44536474      -0.34052575       0.28351629      -1.16248906
O       10.07262547      24.59601188      -0.24575376       1.04028140       0.72943558      -0.67060017       0.89784384      -0.59885728       1.18907046
O       11.45244526      24.29628879       1.56080458       0.34806447       0.15018808      -0.52534989       0.04694778      -0.58038223      -1.22187066
H        1.11737316      20.70175755      -5.32611719       0.06869261      -0.35151880      -0.33390653       0.20915338      -0.49863517      -0.57037240
H       11.45571931      23.01764350      -1.59081784       0.05722003      -0.02005675      -0.04399570      -0.09879995      -0.37681466       0.18348934
H       12.23055216      22.29333336      -0.07613759      -0.08531137      -0.19023009       0.12675258       0.24557279      -0.80732608      -0.15773980
H       12.98256697      23.66832300      -0.95511948       0.13630881       0.08383855      -0.06326640      -1.11774802      -0.39389315       0.67682302
C        4.54101969       9.01129853      10.31708909      -0.58117401      -1.23405701      -0.40841703      -1.70974660       0.58330894      -1.51830626
N        3.24085540       9.71836246      10.06005493      -0.64442489       1.03183535      -0.10546091      -0.00646073      -0.82807761       0.89043683
C        2.09264125       9.39447626      10.79465457       0.24044009      -0.69020800       0.40654268       1.62536502      -0.97422975       0.15069938
C        1.18388435      10.40183408      10.59734176       0.44543562       0.02018557      -0.20392054       0.04924250      -0.60350287      -0.04478803
N        1.74474890      11.30373610       9.71663280       0.75101902      -0.85061234       0.38274730      -0.53661013       0.79010534      -0.51102418
C        2.95832859      10.85195345       9.39885260      -0.08846913       0.27333368       1.22641054       0.34025776       0.99391115      -0.44687438
H        4.74504806       8.38473714       9.42817991       0.00469052       0.00477814      -0.09854171       0.11424257      -0.18277225       0.86598647
H        4.40998769       8.55948855      11.27246803      -0.02986257      -0.20989862      -0.18933355       0.12751381      -1.13112593       0.56074858
H        5.31931321       9.71815886      10.46792511      -0.26859742      -0.07320245       0.18180895       0.65967840       0.97450924      -0.18666184
H        2.24267237       8.43047374      11.28291273       0.20173988       0.18898352       0.17357062      -1.12698829       0.28845602       0.21560411
H        0.14559258      10.41591633      10.96929973       0.07197274      -0.38229005       0.03166178       0.81543481       0.35604307      -0.29677120
H        3.69162459      11.30943788       8.72184655      -0.07989338      -0.10753400       0.02677080      -0.45842975       0.04407922       0.29233444
C        1.21578506      18.15328573      17.90590085       0.22467518       0.22682133       0.11915453      -0.40246207      -0.79863375       1.07942581
N        1.56275277      19.39715110      17.20591681      -1.19004331       0.18006121       0.18532588      -1.71391821      -1.50103569      -0.01444590
C        2.84220864      19.75675478      17.00702645       0.02772477      -0.19885227      -0.07122945       0.31606287       2.02643275      -1.08051205
C        2.83409383      20.50654855      15.85287067      -0.01695343       0.43481717      -0.15782995       3.54533267      -0.18865675      -0.80873364
N        1.63050241      20.44507534      15.29367926       0.15400035      -0.80212132      -0.23399593      -1.09093750       1.95373929      -2.77121878
C        0.86887938      19.82165633      16.10906308      -0.08819670       0.83872467      -0.65484657      -3.30523181      -1.83388066       1.47617853
H        0.10704083      -1.33825272      17.85198885       0.15491180       0.22521975       0.05893457       1.77538729       0.78835744      -0.16155905
H        1.55347884      -0.91386073      18.95516604       0.14620630      -0.22221042      -0.15409572      -0.44722897       0.06530975      -0.13813755
H        1.88235678      17.38186358      17.49060239       0.15062338       0.11960449       0.02902023      -0.49162674      -0.13166484      -0.13145462
H        3.59970696      19.73451078      17.70843091      -0.39966361      -0.07972084      -0.06581732       1.32352829      -0.44635630       1.59785986
H        3.68787083      20.91580780      15.26463038      -0.00370970      -0.06819987       0.53054451      -0.64434648      -0.23692307       0.82306409
H       -0.18556983      19.50378689      15.93558127      -0.15107945       0.01792832       0.03700758       1.07917237       0.53909999       0.29711005
C       11.07042797      22.81405832      10.48339668       0.24723610      -0.38742021       0.42843479      -1.43112087       0.07707152       0.33154356
N       10.47630316      21.49685603      10.20814459       0.05073485      -0.06024334       0.25582455      -0.51748085       0.23578346       0.69506609
C        9.99091780      20.59276649      11.20215697       0.09549073       0.63558115       0.43434882       0.75393200      -0.57203436      -1.86511326
C        9.67408752      19.42245717      10.48012763       0.74771709       0.45408545       0.65019662      -0.26279223       0.68760431       0.65564966
N        9.93959746      19.59213201       9.16149667      -0.22436483      -0.37248889       0.26296927       0.46178234       2.07576513      -1.46715355
C       10.38132914      20.93721980       8.98954631      -0.12707231       0.80025593       0.36883088      -1.10535896      -4.31888866       1.93457556
H       10.71858206      23.58701286       9.76103651      -0.16250496       0.50342314       0.03433366       0.90987307      -0.66102368      -0.11362001
H       12.11528727      22.71048471      10.74389671       0.16505947       0.12977774      -0.01892681       0.56717271       0.36520612      -0.54620731
H       10.60936811      23.13843705      11.40517493      -0.03310418       0.07713911       0.04777165      -0.15139176       0.19554584       0.69598770
H       10.39331582      20.62417531      12.18963534       0.20899425       0.14888987       0.08085399       0.00576180       0.35878950       0.73697114
H        9.18524922      18.49477046      10.85980945      -0.05861582      -0.15470010      -0.09657508       0.62447906       0.94105661      -0.38105339
H       10.56602863      21.38271062       8.04993015      -0.00636227       0.16554649      -0.06136594       0.22329286       0.67080784      -0.60875869
C        7.07249843      15.64111778      17.83383195      -0.73671519       0.07488523      -0.22809482      -0.61163229       1.82683468       0.80112123
N        6.31030550      16.73749673      18.51955950      -0.86408170      -0.92914650      -0.63002508       0.19473943       1.01783085       0.65415287
C        6.36211173      18.13131063      18.23967203      -0.58967976       0.06162056       0.69362607      -0.52048564      -1.04937983       0.05281276
C        5.82916357      18.77380456      19.35130612      -0.93546645      -0.89959905       0.79529767       1.12951541      -1.61243737      -0.71655846
N        5.57133834      17.82384907      20.32563410       0.27558108       1.13970973      -0.20252267      -0.81460357       0.66732305       0.49995032
C        5.83303349      16.63099983      19.84158972       0.09431207      -1.55877539       0.56715223       0.86391437       1.05998349      -2.31591725
H        6.50998925      15.34751442      16.95289880      -0.04958998       0.00466868      -0.13133367       0.36294186      -0.23691973      -0.33416593
H        7.02913254      14.90654400      18.60661984       0.08906595       0.23563827      -0.08160454       0.45553583      -1.32936251       0.08170329
H        8.10776308      15.99362998      17.67673291       0.05456405       0.03128429      -0.17522755      -0.34072989      -0.32872695      -0.31178054
H        6.78067989      18.47776754      17.29336293      -0.16489343      -0.12728209      -0.05942265      -0.17562634       0.00959526       0.26292330
H        5.80011606      19.82405686      19.53026145      -0.12175841      -0.15535680       0.09170007      -0.25118464       0.55812597       0.32011083
H        5.85940042      15.70519703      20.37273676       0.02288756      -0.32416529       0.04428491      -0.17376429      -0.38224638       0.25406021
C        5.75839367      16.34907686      23.05977678       0.12215240      -0.58633283       0.01017026      -1.82520044       0.32111219      -0.01037294
N        6.66918445      16.43967106      24.18273487      -0.47129884      -0.12939010       0.39002841       0.47335604       0.98906577       0.17603934
C        7.48949067      15.40303101      24.63774331      -0.88005727       0.55260337       0.58405232      -0.68939102       0.52943027       0.71487248
C        7.95603713      15.84027015      25.86446226       0.94387827       0.69676235      -0.05540544      -0.32105291      -0.61704016      -0.94266009
N        7.41200296      17.05260643      26.15508753       0.79690899       0.08722009      -0.16253983      -0.32997736       0.52409530      -0.99236703
C        6.66368487      17.42756484      25.10077318       0.20314858       0.25679471      -0.39932642       0.03939566      -0.03973556       0.42431653
H        5.85212947      15.30489924      22.78426154       0.07534378       0.22490191       0.06817737      -0.03660502      -0.02844395      -0.88115436
H        5.88978305      17.09803592      22.19174236       0.11930257       0.23665251       0.11896044       0.12492914      -1.17424464       1.69133234
H        4.69786525      16.42177564      23.47975439      -0.03084706       0.24685363       0.06318882       1.21244609       0.28298682      -0.59491819
H        7.37145235      14.40175234      24.21498559       0.08350707       0.16358286       0.27456496       0.46792209       0.30711201       0.12128979
H        8.63244503      15.34450272      26.48804432      -0.01095291       0.07364471       0.10356975       0.89612997      -0.60169536       0.97849584
H        6.09835013      18.35027797      25.15528541      -0.03226850      -0.15543334      -0.11703144      -0.32163098      -0.17525861      -0.63051265
C       13.15936261      -1.06496304      13.43592794      -1.63169559       0.47210337      -0.45134902       0.04209149       0.67513859       2.19516182