640
Lattice="19.152215 0.0 0.0 0.0 19.152215 0.0 0.0 0.0 19.152215" Properties=species:S:1:pos:R:3:momenta:R:3:forces:R:3 energy=-80135.5078125 stress="-0.02222890965640545 0.0003882369492202997 0.0005448394804261625 0.0003882369492202997 -0.02234438993036747 -0.0020759855397045612 0.0005448394804261625 -0.0020759855397045612 -0.020677153021097183" pbc="T T T"
C       14.43022516       7.43005217      18.13527227      -0.77676271      -0.86288549      -0.28577014      -2.17071795      -1.01660419      -0.91751111
C       14.69311250       6.06437263      18.72196767      -0.06059291       0.11535031       0.67705686       0.38457459       0.71161413      -2.20169282
O       15.11496910       5.84469605      19.83308682      -0.09558413       1.05206454      -0.20932087       0.40796292      -0.36204678       1.73170805
O       14.47448443       5.14959730      17.76113988      -0.10256460       0.37493871      -0.93013984       0.14660567      -0.42225370       0.37947571
H       14.79963343       4.16718076      18.13362552      -0.13027415       0.21882899      -0.07078175      -0.30108601       0.05319726      -0.03800759
H       14.88106097       8.25990867      18.61229284      -0.02958739      -0.11893872      -0.11761903       0.93391889       0.81004465       0.63183457
H       13.33494015       7.54236113      18.40180320      -0.02025692      -0.11281077       0.32040275       0.57562464       0.31308323      -0.64404786
H       14.55827028       7.39013607      17.01106550      -0.04660922      -0.02224277       0.23992054      -0.16802886       0.26579982       1.33083320
C       10.53549365      16.62381852      16.19817368       1.02195424       0.29328301      -0.20831593      -0.78176332       0.04038090      -2.06514907
C       11.95732496      17.04630118      15.94364209       0.80161971      -0.18087540      -0.71738229       1.02869391       1.81445944       1.22267127
O       12.23347371      18.35949247      15.61832376      -0.16273987       0.22246395       0.01360043      -1.41771650      -1.62794018      -0.11898157
O       12.88629258      16.26070424      16.19869902       0.96543231      -0.00933468       0.78049727       0.07041204      -0.08443952      -0.28733510
H       14.14708180      12.87007499       1.38247895      -0.28033360      -0.34623872      -0.11898559       0.24217525      -0.26194820       1.12135983
H       10.15806409      16.11562435      15.23545107      -0.07846306       0.05904977       0.30595917       0.35003090       0.36108500       1.26547027
H        9.89706602      17.49866936      16.30109522       0.01195503       0.04167430       0.25012078      -0.23328078       0.07895082       0.24527834
H       10.39179846      15.95416798      17.04900298      -0.22886944       0.03266989       0.22465669       0.29649436      -0.06076126      -0.01722009
C       -2.15723018       7.55401945       9.26527886       0.58956949      -0.54776334      -0.00193182       0.41308212       2.71589541       1.03029358
C       -0.69189386       7.51507441       8.89408260      -0.13256178      -1.04860144      -0.76597775      -1.32671714      -1.47012186      -0.29578632
O       -0.29210115       6.35648573       8.34257154      -0.60430021       0.54524499       0.41199667       0.07257628       0.64954042      -0.16970755
O        0.08272346       8.41505721       9.07576461      -0.19154799       0.13560683      -0.70175132       1.52770984       1.63669753       0.60168570
H        3.69011184      16.93092658       4.36497055       0.07934092      -0.36268130      -0.10027022      -0.12161559      -0.19477791       1.06353688
H       -2.60236182       6.60914980       9.48299201      -0.08029592      -0.24562391      -0.08125439      -0.41456789      -0.82215285      -0.20092127
H       -2.74988316       8.18934150       8.55016756       0.01514519       0.10234343       0.03701485       0.41733772      -0.78862596       0.40329421
H       -2.15511239       8.15043417      10.22590625       0.22501180       0.04186302      -0.22728647      -0.20135693      -0.45763516      -0.77622604
C       11.13263680      14.75660379       1.02451253       0.52317550      -0.02168729       0.12638386      -0.22278768       1.47663105       0.06035970
C        9.80086584      14.14476571       1.06410156      -0.40929848      -0.00711115      -0.26662431      -2.08834052       1.70109069       0.12721531
O        8.82769842      14.97402478       1.26675783      -0.74157394       0.58373492       0.67649605       0.66032338      -1.85641599      -0.15603621
O        9.73148738      12.87890108       0.84976702       1.07097796      -0.48248969      -0.50878897      -0.22559083      -0.87352502       0.10062721
H        8.50586906      12.23434132       0.86246091      -0.09395478      -0.00883413      -0.25046345      -0.21461225       0.74312329      -0.55139619
H       11.89437695      14.07540756       0.83001926       0.16919571      -0.05884991       0.29717057       1.27159631      -1.20396936      -0.57600003
H       11.34628054      -3.93462656       1.98279172      -0.27949099      -0.16854766      -0.05144661      -0.02478334       0.29433742       0.42585137
H       11.09404590      -3.58238823       0.28693421       0.01613344       0.06333352      -0.16256741       0.24432445      -0.02719174       0.03756163
C       13.26428909      17.74286707       6.01637692      -0.05985781       0.69467896      -0.30712764      -0.82725978       1.70100987       3.02290654
C       12.57135981      16.62978450       6.76767685       0.86636061       0.67584879      -1.29689863      -0.43738818      -1.75324082      -0.41986254
O       11.36163432      16.25517045       6.29651112      -0.56832420       0.43974966      -0.37038256       0.53068382       1.01617289       0.07875234
O       13.14369887      15.97979565       7.67037797      -0.27749987       0.87254304       1.01478916      -0.40087402       0.70292813      -0.23844790
H       17.50615860      16.01578172      15.36707712      -0.17332355      -0.20015652       0.12144863      -0.39291614       0.63735288       0.49581519
H       12.48272498      18.53018520       5.76328292       0.43852037      -0.04807807      -0.10888377       1.35936999      -0.56980479       0.20544875
H       13.74309990      17.35440509       5.17264172      -0.00799266      -0.26062603       0.17322501       0.67615151      -0.52896416      -1.83785534
H       14.06688951      18.08755792       6.74952215       0.24657917       0.19437249      -0.12588453      -0.92566979       0.14170773      -1.10714602
C        7.30617110      17.14836592      12.83790823      -0.37824656      -0.08643467      -0.55045205      -2.50331020       0.56354386       2.03569269
C        8.55713043      16.41531234      12.77333578       0.06579444       0.12569973       0.22591569       1.35325480       0.24921167      -0.34292415
O        9.29484970      17.06810918      11.81155318       1.02552037      -0.84917028      -1.31820883      -0.46802431      -0.63972652       0.48407423
O        8.99060974      15.44562061      13.40075080      -0.55093136       0.49422558      -0.26809838      -0.71549159       0.29427227       0.02934564
H       10.11588689      16.49729342      11.80633949      -0.04586240       0.00276034       0.03351789       1.35216904       0.01195931      -0.17109065
H        7.34674308      18.08887922      13.47317086      -0.29152565      -0.07175154       0.22302149       0.31188166      -0.87072814      -0.70640570
H        6.40515266      16.61402398      13.23245850      -0.02034214       0.00615899       0.17363671       0.69036007      -0.05127002      -0.38706690
H        7.13370417      17.43784043      11.82003270      -0.17125543       0.02024274       0.12560939      -0.62217212       0.54056442      -0.61905706
C       18.06575735      -4.91092632      -0.60025339      -0.00836808      -0.22464015      -0.22387120       1.53201020      -1.12312222       0.53554732
C       17.97991216      -3.78692173      -1.59314049       0.19832838       0.06951610      -0.80791098       0.32966086      -0.09094107      -0.40852636
O       17.71248382      -2.60884222      -1.12865678       0.35755427      -1.18950885       0.84761689       0.05957062      -0.31594267      -1.06821346
O       18.21969469      -4.08650599      -2.83991040      -0.71997110       0.52113508      -0.08291968      -0.57468945       0.73129565       1.40921032
H       14.70331845      -0.12037536       0.13208393       0.12965372      -0.03529141       0.25297055      -0.40660632       0.19278935      -0.03118749
H       17.53787659      -4.83098234       0.34764509       0.09166190      -0.16525228       0.12010068      -0.05162476       0.90074134       0.22668202
H       19.17346904      -5.10078409      -0.34947169       0.00402887       0.03757245       0.05652527      -1.34805799       0.16011721      -0.34115428
H       17.66075725      -5.84155777      -0.99610890       0.11648577      -0.00316097      -0.05750642       0.27231616      -0.26989841      -0.54697812
C      -11.07417082      23.04644582       5.00417652      -0.62829436       0.38559448       0.16642745       1.06105137       0.83223128       0.08814347
C      -10.64242906      23.96257252       6.11496482       0.00302017      -0.23312924       0.74874056      -0.73450369       2.10251808      -1.41823041
O      -10.66415608      23.61995325       7.26665801       1.24021240      -0.33517163      -0.85618694       0.33993268      -1.60359287       2.50909781
O        8.80284101      25.25870645       5.88573764       0.24989803       0.29768296       0.61151762       0.00273007       0.77115214      -1.31678927
H        7.61861483      11.68255042      -4.51159005      -0.24744591      -0.13292189       0.18558525       0.45022336       0.38862020       0.23062584
H      -10.58525094      22.14849590       5.31955475       0.01383348       0.07654483       0.07915800       0.16379492      -1.16966462      -0.26409060
H      -10.71296353      23.39514869       4.02159869      -0.25921224       0.04642441      -0.13992123      -0.29495519      -0.29800576       0.24710605
H      -12.14258978      22.93756712       5.09471906      -0.25738221      -0.25252510      -0.09984147      -0.54730487      -0.12516630      -0.35513854
C        3.04675010      -3.65451010      -4.04070048      -0.27265241      -1.11740345       0.52421243       1.19503510      -0.22080746       0.84288335
C        3.26001910      -2.82212695      -5.23703418      -0.60105586       0.26341414       0.62083233      -0.69322097       1.63041461      -1.09497297
O        2.42267878      -1.83740782      -5.26877507      -0.18256749       0.36978286       0.91458609      -0.93711287       0.99016964       0.40506101
O        4.10831333      16.17655076      -6.15687074      -1.30236582      -0.59286030      -0.49520064       0.74438846      -1.00177491      -0.04841447
H      -10.71006197      25.66947112       4.95235771       0.08579005       0.29371042       0.23895201       0.15960017      -1.07270825       0.52301961
H        2.98156738      -3.04663566      -3.12795316       0.03864911       0.12814707       0.00897970       0.97650933       0.22029173      -0.00321102
H        3.83218842      -4.42865553      -3.99688309       0.07286824       0.08079310       0.16940946      -0.69553691      -0.23235291       0.44905448
H        2.01308916      -3.92015455      -4.00311238      -0.34655419      -0.15935265       0.02041592      -0.82602555      -1.23710704      -0.54052567
C       -1.21255148       2.85967857      11.36904147      -1.00035103      -0.76617300      -0.02287952       0.76407528       0.80744505       1.61224711
C       16.74139022       3.11246639      12.24597593       0.07841063      -0.10142148       1.67127121      -0.70515323      -0.38609415      -0.65815544
O       15.64410854       2.95238452      11.55504449      -0.08622262      -0.02784029      -0.95631501      -0.87351263       0.75243711       1.02315176
O       -2.33151501       3.38365972      13.46556170      -0.51384785       0.26613965       0.14667842       0.03470433       0.21195078       0.14006937
H       23.80369037      -1.14950079       7.11885878       0.06673531      -0.01006436       0.26715575       0.61629820      -0.85502058       0.82624286
H       -0.99070949       3.77015818      10.81517753       0.13134661       0.25617241      -0.17978006       0.25741079       0.20858032      -0.15909104
H       -1.45910134       2.09395801      10.69442600       0.28087873      -0.09755456      -0.18465835      -0.14409116      -1.14664114      -1.15700841
H       -0.37350564       2.56561905      12.00557382      -0.07166982       0.07038340      -0.16129259       0.23421258       0.12554199      -0.31071556
C       23.06656694      22.43693651      17.48850692      -0.41720377      -0.35725823       0.21203379      -1.06106281      -0.06491745      -0.76828778
C       23.44207713      22.14398538      15.98719038      -0.63593103       0.41813522       0.25225609      -0.51186323       2.51344967       1.82343352
O       23.67784047      23.12514981      15.25589849      -0.01696079      -0.38170994      -0.04412327       0.21057150      -0.27978352      -0.36425775
O       23.42209565      20.90833286      15.60229223      -0.20880352       0.25716536       0.74439221       0.21576673      -1.07767665      -0.41353655
H       23.59572443       1.71760065      14.54190978       0.15530901      -0.15053296      -0.16207054      -0.38565207      -0.20196244      -0.00226769
H       22.55661639      23.45837997      17.57837803       0.06690683       0.10756612       0.25827620       0.46829459      -1.43441546      -0.34360605
H       23.91306746      22.48325677      18.16812039       0.12642657       0.32868501       0.07688299       0.70185930      -0.16808751      -0.06800175
H       22.41442820      21.61025729      17.84283279      -0.26023185      -0.20084835       0.20373175       0.02555624       0.51647109       0.03996307
C        1.19566897      18.88089976       9.64359173       0.58556282       0.12394126       0.60631089      -0.33140481       0.32220587       0.54670793
C        1.03773921      18.18135150      10.99098169      -0.22558290      -0.31521490       0.35290515       0.76118350      -0.81399632       1.15702438
O        0.48381732      17.04976799      -8.09828239      -0.56941222       1.99056081      -0.52131523      -0.12346901       0.43692517      -0.09642124
O        1.59958007      18.75212105      -7.09988860      -0.64681211      -0.56137383      -0.30790989       0.05333224       0.03000569      -0.45223719
H        3.83191661      15.56075011      11.52034913       0.12273691       0.14096837      -0.18427748      -0.11370581      -0.31385893      -1.34522188
H        1.30334614      19.98111797       9.81667940       0.00068819      -0.03550375      -0.23243857      -0.38989747      -0.60506070      -0.34364179
H        0.30127205      18.56098821       9.05152088      -0.19634309      -0.22984093      -0.20038469       0.72283494       0.67619479       0.07254982
H        2.13376093      18.55615189       9.14732146       0.05501653      -0.02264375       0.02916892      -0.35722619      -0.08258653       0.06587815
C       10.88451861      13.14117998       4.54842738       0.27016599      -0.14000132      -0.73222120       0.76208198       0.53865325       0.35273954
C       10.25078667      12.17016281       5.53619159      -1.03108099       0.28037484       0.17717859       1.63029230      -0.76218665      -0.87390089
O        9.22265394      12.37775638       6.18787517       0.38159434      -1.43421383      -0.88906938      -0.99187005       0.50587261       0.49291542
O       10.95751124      11.05970884       5.65876803       0.04555859       0.84454254       1.61684480       0.01910722       0.26895982       0.06387302
H        9.35529673      12.47601162       7.85712148      -0.36271498       0.01536186      -0.28484350      -1.02409148       0.45624298       1.60342824
H       10.46559522      13.05570827       3.52292864       0.20583817       0.06748213      -0.09731171      -0.15916666       0.07098775       0.50614411
H       11.98098765      12.84026353       4.43397984       0.06938078      -0.00627517      -0.04945769      -1.14697599       0.56345892       0.28720975
H       10.75998962      14.19063010       4.97490977       0.04774426      -0.06170561      -0.40133158       0.36943543      -1.14205611      -0.76982558
C        5.63466770       1.19570119      21.60917906       0.25936479       0.27517096       0.76751698      -0.31392741       3.06200528       1.25337422
C        5.93913653       2.68723095      21.23394815      -0.20350123       0.27458081      -0.01823609      -0.37281546      -0.48509681      -0.56058896
O        6.54124306      22.12843095      20.20633903      -0.20122084       1.09641467       0.67255100       0.13902336      -0.14612019      -0.28846478
O        5.48960854       3.68653473      22.02819349       0.29331610      -0.15890886      -0.05336697      -0.13369524      -0.89718652      -0.29376185
H       24.07305723       3.30672713      22.79367207       0.15624621      -0.26843979      -0.00491888      -0.16302481       0.48165184       0.49665177
H        5.79271248      19.70554426      20.81734074       0.22467485      -0.13538496      -0.06618384       0.61494023      -1.29858661      -1.87673497
H        4.62508569       1.11028293      21.95675123      -0.01871984      -0.00612647      -0.28232096      -0.92110586      -0.07475837       0.26336873
H        6.26084896       0.98231776      22.44884028       0.10472687       0.21382191      -0.00057507       0.73648250      -0.59791094       0.74367577
C       12.93738916       4.72781371       7.50595891       1.00688127       0.19833156       0.75599608       1.07960308      -0.13931730      -1.41441631
C       13.44390488       5.91616283       8.21372008       0.41294941      -1.60003262      -0.88112986      -0.38113737      -0.48730397       1.15913081
O       13.73445298       6.91972586      26.56986500       0.43828861       0.39636562       0.39582449       0.69197613       1.62405336       0.82760835
O       13.47713013       5.97056292       9.45943264      -0.52807310       0.69127483       0.46837413       0.33353370       0.12992084      -0.37650010
H       13.92462029       7.73998405       8.11422338      -0.05873709       0.32874685      -0.13152757      -0.16758317       0.07325971      -1.30247331
H       12.00290822       4.95665333       7.04550615       0.02079982      -0.13672660      -0.07589287      -1.07606351       0.16374865      -0.40121815
H       12.83323461       3.94235665      27.34325121      -0.06377640      -0.34320572      -0.30121409      -0.36805290      -1.40130234       0.99396080
H       13.58674687       4.39957102       6.67273636      -0.01733370       0.15579836      -0.01271079       0.05505444       0.26868325       0.32599509
C        9.18098258      23.88840150      -0.31993432      -1.23201353       0.39063746      -0.30591042      -1.02763462      -1.22833347       0.25335202
C       10.07353464      22.89872508       0.43441059       0.39794302       0.07258314       0.17965895      -1.33375120       1.99568295      -0.46620047
O       11.01440429      22.38803907      -0.16302170       1.15570406       1.20990945      -0.87167064       1.76258612      -1.25835168      -1.13354349
O        9.78294293      22.74195751       1.66250808       1.03314365      -0.42703352       0.49721399       0.32885969      -0.38568193       1.62920356
H        1.74687064      17.62753983      -1.30243876      -0.20149115       0.06761275       0.18483173       0.09187049      -0.45636019       0.86682105
H        8.20275791      23.34082717      -0.35291121      -0.07894199       0.11257576       0.00393437       0.44299492       1.02285123       0.13982424
H        9.56325091      24.05405199      -1.30046858       0.01577626       0.29836574      -0.13519927       0.29224086      -0.10595188      -1.06098366
H        9.09995916      24.88363614       0.10236121       0.01682739      -0.23191469      -0.05690414      -0.20244268       0.12858197       0.65972960
C        3.06930788       9.58925647      12.23526355       0.41006361       0.23930916       0.76296106       0.41855183      -1.07721448       1.65484226
N        4.13997955       9.74273439      11.31075076       0.90353955       0.99109786       0.52468889       0.80296218      -0.91423720       2.92182708
C        5.47531017       9.70554964      11.64984813      -0.50023461      -0.11099302      -1.48902622       0.92251551      -0.64556175      -1.37534785
C        6.13033814      10.24267426      10.51386066      -0.26103257       0.62224205       0.32200167      -3.63369274      -0.49938837       2.26998043
N        5.17689522      10.66919879       9.65906195      -0.47108053       1.78486465       0.15234496      -1.30439043       0.38988739      -1.63594198
C        3.95743167      10.34052084      10.17461748      -0.38685377      -1.02617541       0.73919816       1.83170819       1.68854189      -3.04862070
H        3.22470942       8.70155636      12.92557173       0.27306845      -0.06460572      -0.22395957      -0.19736920       1.06940007      -0.57484776
H        2.24091995       9.33393953      11.60773414      -0.13233050       0.28836831      -0.02468650      -1.27976120       0.23189348       0.23001049
H        3.02670659      10.53504803      12.80669107       0.04698019      -0.16747029       0.16362137      -0.70669615      -0.52697980      -0.05568869
H        5.79537404       9.06774841      12.46379563      -0.21469895       0.10448469       0.21826685       0.16164327       0.31613737      -0.18388531
H        7.12136183      10.37027499      10.31641594       0.20158462      -0.12938926      -0.00168349       2.61230087       0.32063529      -0.43813294
H        2.97926525      10.67162836       9.82736133       0.00175620      -0.19652999      -0.04066187       0.24898547      -0.17237364      -0.15551683
C        0.22979687      20.58979258      14.31724603       0.00320970      -0.13590200      -0.46210405      -0.68613023       2.52838564       1.51239872
N        0.34523500      20.04151983      15.68628073      -0.06199806      -1.35744580      -0.55965774       0.54688025      -0.10692310      -0.57955593
C       -0.60803700      20.20637892      16.67627155      -0.49570413       0.45674922      -0.39900330       2.16668844      -0.70566976       0.96245074
C       -0.07155117      19.57226198      17.78492114      -0.38476002      -0.04426955       0.20089225      -0.32644075      -0.66516978       0.97392952
N        1.11488766      18.91086705      17.46087440      -1.32621396      -0.78906839      -0.44328201      -0.11968821       0.97048122      -1.20471501
C        1.35623706      19.23134535      16.15906875      -1.34712895       0.64585047      -1.16531633      -1.81552362       0.16842663       0.67171907
H       -0.48719697       2.31468922      14.39371497      -0.00975425       0.02858296       0.00598193       0.41481224      -1.00214505      -0.14079078
H       -0.17264328       0.72491163      13.65656007       0.12101574      -0.00430684      -0.12816812      -0.37483960      -1.12295842      -0.91924644
H        1.13073080      21.05955402      13.90542584       0.22890988      -0.03037230      -0.09476205       0.42625904      -0.61001003       0.37553880
H       -1.50067690      20.73562212      16.54840596       0.29023604       0.12902834       0.07171371      -1.15645897       0.68811232      -0.24687484
H       -0.47667530      19.48931164      18.82068920       0.23386379       0.31473912       0.16248622       0.29158598       0.21596240      -1.13366950
H        1.89447900      18.61710370      15.46740162       0.11000307       0.31041438       0.01694386       0.90726519      -0.07749367      -0.29845357
C       12.09111659      19.66254104      11.13350394      -0.11363051      -0.08618247      -0.13441646       3.08661938      -0.53765631       0.55415994
N       11.42019023      20.02412780       9.91847438       0.76471831      -0.61271310       0.05727723       0.28999728      -0.24852109      -0.31812358
C       10.30982579      20.82984982       9.89583948      -0.12593132      -1.01253356      -0.99807134      -0.11342096       0.45524853      -0.31334579
C       10.04401463      21.11996320       8.58376204      -0.12888231      -0.92371623       0.41984674       1.29669142      -1.33314693      -1.47546935
N       10.98831884      20.39503652       7.74163544      -0.67205467      -0.26862218      -0.82620233      -0.72135758       1.07795644       1.06686962
C       11.80342725      19.77378757       8.58428006       0.27534679      -0.22274978       0.25565540      -0.83935082      -0.07808036       0.86894041
H       12.21551779      18.58728168      11.27105153       0.06113394       0.17882188       0.11785389      -0.47464103      -0.36785376      -0.16355678
H       11.73509369      20.06120382      12.07142731      -0.02365905       0.23779535      -0.07734020      -1.05790114       0.44775692       0.04955962
H       13.17652423      20.00522230      11.17290697      -0.09278125       0.13388843      -0.24684488      -0.93196571      -0.01489254      -0.59271657
H        9.84426727      21.14605308      10.82016571       0.03453005       0.04228104      -0.29836344      -0.03413175      -0.01149862       0.00087839
H        9.32209429      21.77098559       8.11082762       0.35771066      -0.04641131       0.14385588      -0.11176282       0.05372030       0.14904070
H       12.55380462      19.00989899       8.31591245      -0.10066629       0.34843792      -0.02849396      -0.48032093       0.56154823       0.32994333
C        7.03410229      15.40358238      17.24587061      -0.77805748      -0.41684811      -0.50527643      -1.38635015       0.46536386       1.85394037
N        7.20274458      16.85763187      17.52817003       0.06018290      -0.27037313      -0.41671991       0.64171791      -0.53626418       1.68466341
C        7.56966373      17.35536596      18.81373885      -1.17915808       0.19095711       0.72042209       0.12575202       0.49757189      -1.03053772
C        7.33409397      18.75207080      18.69726136      -0.06532773       0.12178316      -0.33898853      -0.29422900      -4.98738861      -1.74667335
N        6.85033627      19.07752003      17.47357917       0.53453443      -0.02045611      -0.52188531      -0.08653745       0.34964448       0.23006296
C        6.79345947      17.93355623      16.82938128       0.03216116      -0.04921356       0.15676376      -0.88523853      -0.06809741      -1.79863024
H        7.44579364      14.86341275      18.13342862       0.04548511       0.34032503       0.20321938      -0.24569714       0.39029855      -0.50123322
H        7.55973258      15.05016311      16.38248987       0.23496088       0.03763134       0.17010626       0.18065874       0.02345511      -0.91426802
H        5.91607000      15.21913979      17.23125630       0.33029125       0.02169465      -0.09198731       1.14744031      -0.15442398      -0.31696254
H        8.11010254      16.67545263      19.51828727      -0.21233555       0.07266481      -0.18354101      -0.59473729       0.65878880      -0.37907776
H        7.56041247      19.41693633      19.38017840       0.13610937       0.07825423      -0.04035784       0.84794140       3.52296495       3.21660042
H        6.34318372      17.89293052      15.84929744      -0.16070238      -0.00238042      -0.10608982      -0.02316241      -0.41036510      -0.21935219
C        7.88234935      15.00714638      24.11032551      -0.44354582       0.16352679       0.03684100      -1.68709123      -3.08663702      -1.90541077
N        6.53941056      15.34525820      23.57048999      -0.46243609      -0.02231515      -0.35209030      -0.55031967      -0.32397345       0.91117370
C        6.10192400      15.22885103      22.25745809      -0.57708359       0.44764596       0.47984369      -0.35473382      -0.23937833      -0.38385665
C        4.75224810      15.53687896      22.23159751       0.57483158      -0.12651415       0.14634191       1.19378066      -0.10474449       1.03448677
N        4.44898212      15.97582978      23.50810683      -0.81733425      -0.30558737       0.46648472      -1.54011369       0.30914682      -0.32048154
C        5.44897913      15.69898236      24.33981716      -0.65579632       0.14473337       0.79973565       1.52989197       0.98971546      -0.84258175
H        8.36115347      14.50527478      23.24440367      -0.06934802       0.01231047      -0.06760539       0.37013581       0.70292485       0.36807227
H        7.80877132      14.18106561      24.83815367       0.27063053       0.22268727      -0.28967668      -0.25435388       0.38622868       0.09887481
H        8.40617414      15.80818988      24.49882639       0.06918933      -0.03037418      -0.03098242       1.09195638       1.94534039       0.56155264
H        6.72794688      14.90528616      21.44008028       0.24174517      -0.02710129       0.04960034       0.48597872       0.13759525       0.06798509
H        3.95797841      15.25760978      21.55562221       0.08537854       0.25873494      -0.07930762       0.09533620       0.16801497      -0.40313953
H        5.52844735      15.84550171      25.41171614       0.09053781      -0.22005609       0.26706353      -0.33656836       0.01978344      -0.21628445
C       14.69240467       0.33969446      13.82299422       1.10983868       1.61078175       0.26749872       1.88812935       0.40986180       0.05734471