640
Lattice="19.152215 0.0 0.0 0.0 19.152215 0.0 0.0 0.0 19.152215" Properties=species:S:1:pos:R:3:momenta:R:3:forces:R:3 energy=-80136.1796875 stress="-0.01785310171544552 0.0012318352237343788 0.001622112118639052 0.0012318352237343788 -0.017914919182658195 0.00033452772186137736 0.001622112118639052 0.00033452772186137736 -0.019509321078658104" pbc="T T T"
C       12.42591364       5.85907730      17.78151451       0.45096772      -0.67199258      -0.00713897      -0.90545034       0.98396438      -0.06452048
C       13.50537497       5.14176731      17.05151462       0.20606933      -0.34357954      -0.41085106       1.69880533       0.98996973       1.07422638
O       14.56872417       5.72028898      16.80594502      -1.72496910       0.44494288       1.12590213       0.29814687      -0.14864117      -0.37986827
O       13.29287363       3.86423167      16.82030277       1.89530457       0.59022227       1.15262543      -2.58100653      -0.01063043       0.69457924
H       14.04014597       3.38620032      16.45315400       0.17502331      -0.19131632      -0.06931933       1.90042293      -0.90635598      -0.93486476
H       12.46079186       5.80720645      18.90413371      -0.05541226       0.32086216       0.10184630       0.18057163      -0.12485050      -0.86702561
H       11.48180276       5.43232658      17.45121656      -0.14134178       0.03481007       0.19766301      -0.50629210      -0.02701131       0.21531251
H       12.46926319       6.92991967      17.44554292      -0.19574105      -0.06812748      -0.09658527      -0.02434439      -0.69350064       0.51172280
C       10.37708590      14.68922316      15.66314852       0.29810042       1.28771283       0.60545958      -0.29464686       0.77695096       0.86281788
C       11.85901395      14.56436354      15.77345669      -1.41314908      -0.02209160      -0.41701922       1.57201827      -1.69415021      -0.90475881
O       12.67484312      15.64804195      15.80233469       2.25784055       0.01492016       0.29818642      -1.11098540       0.31674299       0.15828767
O       12.42326744      13.43848027      15.69583986       0.72792803       0.25870554       1.16741975      -0.70544845       1.26565731       0.51836419
H       13.81458658      12.74500227       2.17231071       0.23205073       0.18395355       0.35432581      -0.53341609       0.40150380      -0.40260467
H       10.07215614      14.81663400      14.62177844       0.03173929      -0.02395972       0.05610642       0.01791000      -0.03737989      -0.20909341
H       10.06521367      15.58805130      16.20228024      -0.31424750      -0.05846191      -0.07372057      -0.24269523       0.27299935      -0.02946328
H        9.83595716      13.85280565      16.11796201       0.08245326       0.21406526      -0.11225003       0.25857323      -0.09128761      -0.19331992
C       -0.93244750       6.09796301       7.34234138       0.59248079       0.18515094       0.33970197       0.83895910       1.45007229       0.35305530
C       -0.03888846       5.96597495       8.55239545      -1.27131696      -0.14030634       0.14621169       0.03934258       0.23677559      -0.63430798
O        0.06823485       4.75743142       9.13450386       0.65517616      -0.24406710       0.95845219      -0.15529931      -0.25598052       0.02397537
O        0.54090731       6.97358385       8.97114132       1.30053401      -0.00715442       0.37198080       0.03117383      -0.64191079       0.29024041
H        4.67942685      16.14164726       6.04165861       0.10687880      -0.02259930      -0.11981061      -0.27453098      -0.57316852      -0.75059235
H       -0.44303770       6.68553231       6.55000445       0.05325058      -0.11086314       0.31913869       0.14159596      -0.05490549       0.23174705
H       -1.73803377       6.70783739       7.71297785      -0.31588425      -0.15725654      -0.23427077      -0.93166786       0.51453215      -0.03688693
H       -1.33418724       5.23696209       6.91008037       0.26771575      -0.13528382      -0.25673482      -0.58208603      -1.69535780      -0.42303801
C       10.59661484      14.05803142       0.37443847      -0.39772476      -0.28342081      -0.01023842       1.69288588      -0.40605465      -0.35391384
C        9.19196449      13.66137318       0.46276751       1.13523948       0.98743376      -0.62939958      -2.47239280       0.16864951       0.06846492
O        8.32891943      14.26151405       1.15956749      -0.28750197       1.36044764       0.94018392       1.35744286      -0.45890746      -0.52504015
O        8.85643295      12.57150359      -0.26050989       0.66558935       0.26384398       0.01734345      -1.24445367       0.00285399       1.66786397
H        7.86428206      12.35334790       0.17227345      -0.27509501      -0.00833251       0.05457633       0.56844115       0.01862930      -1.58591676
H       10.71958980      15.11359209       0.13048395      -0.02992240      -0.02268570      -0.10257790      -0.15739261       0.48793006       0.72777724
H       11.15768935      -5.56371912      -0.47370464       0.20283171       0.29419572      -0.11591108      -0.55199707      -0.24208012       0.83147508
H       11.03849939      -5.40772577       1.36345990      -0.18250002      -0.15117405       0.11802247       0.28288507       0.67784417      -0.87851489
C       11.64553299      15.88699679       6.62195661      -1.12673059      -1.05692854       0.68445206       0.66004169       1.37665987      -1.50540137
C       13.18255472      15.93125971       6.36041638       1.47304463      -0.12921574       0.33955148      -1.17589569      -0.06428617       1.36578500
O       13.57965593      16.94054540       5.64565773      -0.35278274       0.20365560      -0.82488498       1.29234123       0.89102739      -0.74873400
O       13.98591391      15.14392353       6.89872151       0.60617846       0.72539514      -1.85248594      -0.65978301       0.28464502      -0.54401195
H       18.28420011      16.49264276      16.39919167      -0.11477960       0.07000121       0.04112016      -0.71584094       1.21385217      -1.63823938
H       11.09392853      16.01049765       5.62823412       0.05193141      -0.04865728      -0.10672632       0.69537306      -0.23191547       1.27950454
H       11.38249300      16.75739309       7.26544244      -0.06873381       0.02363810      -0.01577474       0.03958909      -0.41529036      -0.30738017
H       11.43760572      14.97855912       7.11467489      -0.12818869       0.34491076       0.05618425      -0.57230705      -1.24200487       0.63608670
C        8.28457932      17.42331555      11.81940574       0.54288950       0.48828248       0.68664447       0.36231160      -1.43829823      -0.18099727
C        9.56584177      16.61025551      11.57651548       0.17084386       0.43028029      -0.09766297       0.06919611       2.80884957      -0.59467274
O        9.52720049      15.47506206      12.20354883      -0.21426285       0.71570983      -0.81388442       0.19890714      -1.55709040       0.48826718
O       10.53350314      17.06560059      10.91192768      -0.28856029       0.91373064      -0.57267327      -1.30396867      -0.88615531       0.74025512
H       10.43429111      15.02728743      12.06594648      -0.04049691       0.25518325       0.26018538       0.59582561      -0.44161022       0.35008249
H        7.45984713      16.84861573      12.25761200      -0.04011841      -0.22024218       0.29809533       0.06020796      -0.38326561      -0.48202106
H        8.06433290      17.84163637      10.86304066       0.28119345       0.29188265       0.22006411      -0.72008342       0.62809706      -0.67596459
H        8.39808267      18.19225910      12.54156851      -0.07522936       0.02767363       0.17301425       0.71886945       1.21589851       0.65714270
C       18.80537657      -4.17019322      -0.02904927      -1.15707208       0.43600887      -1.21894364       0.53916478      -1.20377409      -0.35160527
C       18.28886241      -3.13993191      -0.98374313      -0.05472410       1.04262524      -0.17854734       1.05191743      -1.83276701       0.28480887
O       17.82384476      -2.10975220      -0.56175873      -0.13713502      -0.98805285      -0.34629992      -0.73169136       1.64102507      -0.25878537
O       18.41225969      -3.48998819      -2.28523441      -0.00834663       0.12841996      -0.88436570       0.43357322      -0.67910802       1.13085473
H       14.91863047       1.45329999      -1.58854818      -0.30144172      -0.10152295       0.15715340       0.00559221      -0.48140857      -0.34014249
H       17.94736148      -4.63527486       0.43307266      -0.08819180       0.09089164       0.10422325      -0.55834234      -0.19664946       0.42776597
H       19.41310181      -3.71722929       0.73394239      -0.17616837      -0.10691456       0.29641513       0.16031277       0.52585423       0.54315805
H       19.41055599      -5.01337605      -0.41136619      -0.14612962      -0.19639743       0.12822132      -0.21161599       0.40133625      -0.53516948
C      -11.44717650      22.19442004       5.65928677       0.41661410      -0.15531200       0.23136991       1.40820682       2.02450061       1.91387749
C      -10.22505795      23.11887086       5.88336252      -0.73226491      -0.57035268      -1.16119247      -0.98671585       0.79222411      -1.33810043
O       -9.16092389      22.70506200       6.31491263      -0.82740924       0.21454450      -0.45097769       0.57638121       0.02107750       0.28097576
O        8.76951276      24.42400354       5.52988308       0.16278260       0.68391037       0.02294699       0.69042993      -0.93796575       0.65538144
H        8.29481623      12.84254232      -4.60875823      -0.24704177      -0.28635062       0.10141130      -0.51212633       0.29197174       1.04445314
H      -11.12644963      21.40846285       6.30098021      -0.00758500      -0.10560977      -0.01307696      -0.76818490      -1.38837409       0.58478802
H      -11.53852434      21.90856635       4.66333912       0.20965979       0.33453148      -0.05648240       0.13729173      -0.63909131      -2.05924749
H      -12.33602078      22.74266907       5.95880936      -0.08077064      -0.08710541       0.19935507      -0.34162903      -0.27041388       0.35478681
C        3.59377306      -2.42821437      -2.94073400       0.12789863      -0.48123641      -0.51450247       0.26936862       0.08178684      -0.16806537
C        3.57379628      -1.57089956      -4.17418519      -0.21093622       0.32165305      -0.22962960      -1.72506881       1.12953639       0.56532443
O        2.62070104      -0.69588825      -4.21526231      -0.18906026      -0.23759702       1.03007140       0.68632734      -0.37641740      -0.37717018
O        4.41753074      17.41480543      -5.10026997       0.18701185       0.91075255      -0.12700075       0.85442418      -0.30656797      -0.66627687
H      -11.29994955      24.55837122       5.05523344      -0.27353508      -0.16729497       0.15692582      -0.26879603       0.27647886      -0.22311829
H        2.56200714      -2.73630489      -2.77516061       0.08059101      -0.31949613       0.32011929      -0.13083301       0.08625036       0.55547035
H        4.05678645      -1.91108005      -2.07193289      -0.00115376       0.10934860       0.21395544      -0.48461089      -0.16883898      -0.31104636
H        4.19957277      -3.28068243      -3.20886852      -0.07909722       0.25310340      -0.22831102       0.28496832      -0.49403489       0.29497892
C       -2.35938586       4.56113263      11.92932375      -0.00020479      -0.32712386      -0.12620498       0.61579674       0.82713699      -0.03011954
C       15.76693228       4.44846028      10.91944577       0.78612455      -0.95295778      -0.74711363      -2.62025928      -0.21115842      -2.23512840
O       15.25605465       5.64953108      10.43926275      -1.64674596       0.16992582       0.48220723       2.02477026      -0.25778484       1.82066476
O       -3.85574376       3.38032922      10.50179861       0.24754700      -0.52161369       1.49616621       0.37640864       0.26135945       0.34037897
H       23.94131752      -1.39274149       7.77173299      -0.27505220       0.26504989       0.01925856      -0.13730820       0.65302259       0.36849621
H       -1.44167836       4.86805471      11.42511372       0.04882449       0.04835445      -0.45135613       0.46056005      -0.14520524      -0.06169626
H       -2.26083792       3.61616918      12.43408436      -0.05102117      -0.10281811      -0.05731161       0.24255984      -0.28549743       0.57445240
H       -2.62871057       5.40852996      12.53957653       0.04201815       0.15869485      -0.07989048       0.03008255       0.22876938       0.82251823
C       24.00136698      24.20109305      17.11206961       0.44230454      -0.18228535       0.68080009       4.95945549       1.16045487       0.73255539
C       24.65848625      23.38274510      16.03097832      -0.45618101       0.59269603       0.30031806      -0.88036442      -0.59550810       0.52126145
O       25.88245296      23.31330339      15.91219479       0.78932997       0.75267624      -0.26241607       0.21830845      -0.06006682      -0.44666746
O       23.74505605      22.72415477      15.29574317      -0.38294682       0.07342222      -0.57622221       0.74454975      -0.87160861      -0.66933763
H       24.19240872       2.86754400      14.56729930      -0.02310757       0.24417016       0.06690678      -0.33854192       0.99288189       0.12777475
H       22.98471043      24.09636392      17.22799682       0.05448389      -0.18380845       0.00196920      -2.44647121      -0.32607502       0.26883918
H       24.32056597      25.24282376      16.81926769       0.04241177       0.10265768      -0.35181809      -0.71794212      -0.41584647       0.52587581
H       24.63729928      24.00787388      18.07660609       0.08582149       0.04288568      -0.20093572      -1.43177402       0.20349553      -1.43510842
C        0.38669022      20.61818109      11.39618274       0.39004700       0.68544498      -0.52823439       0.50944740       1.57335722       0.84073645
C        1.36169801      20.37028428      12.56549001       0.26491028      -1.04703307       1.41360092       0.63471085      -0.25493914      -0.83279359
O        1.82297521      21.24650156      -5.85290047      -1.37344938       0.54439196       1.67735639      -0.53517061       0.27426934      -0.07208927
O        1.78563424      19.10366308      -6.54812058      -0.11423233      -0.44352811       0.25373836      -1.28212333      -0.03769732      -2.06145811
H        4.11691882      16.77717608      12.62952147      -0.28557188       0.04828570       0.14860255      -0.29086345       0.55293876       0.47609222
H        0.74871079      20.16512859      10.47337271       0.00597116       0.06117178      -0.42308256       0.03098311      -0.26596874      -0.07963458
H        0.35570404      21.73586166      11.29095513       0.05620032      -0.14553143      -0.04511025      -0.07634649      -0.78735447      -0.14040498
H       -0.63349680      20.28999239      11.62047639       0.14904309      -0.12306436      -0.17897732       0.04340668      -0.27169925       0.21869472
C        8.62478353      11.45592936       4.26275552       0.29842508      -0.10234632       0.66161503       0.66943944       1.65076709       0.65965831
C        8.95215675      10.68602042       5.59298601       0.32789349      -0.20836947      -0.53137263      -0.54358768       3.72615147      -1.52623737
O        9.30766472      11.47033598       6.56685919       0.98208903      -0.36664809      -0.98106677       0.07587776      -1.80683541      -0.37811780
O        8.78832824       9.44609437       5.51368748      -0.60831718      -0.89141206       0.46906333       0.03390986      -1.01226044       1.36957550
H        8.97194852      11.92822180       8.18074663      -0.02155947       0.38002711       0.06501674       0.07510543      -0.66127056      -0.47152787
H        8.45643475      12.55380366       4.43528842       0.04095128      -0.09980705      -0.01819524      -0.16381922      -0.76068628       0.37638444
H        7.72688865      11.09643997       3.73732610      -0.11715181      -0.04616039       0.16352993       0.54171431      -0.40373987      -0.19843522
H        9.55969055      11.54557865       3.64295011       0.02803251      -0.14992292       0.00299995      -0.91688657      -0.70384485       0.13456985
C        5.47673901       1.22934545      21.94754211       1.15813525      -0.27442914       0.87466027       0.56413287      -0.29909372      -1.12437010
C        4.55218900       2.22049015      21.19590656       0.09005707       0.01494967       0.14387051       0.91118920      -0.44105095      -0.93911338
O        4.69501902      21.67528217      19.98981332      -0.11872798       0.15275716       0.23883198       0.16728590      -0.49770528       0.92518723
O        3.59610085       2.77764342      21.89772965      -0.62406907      -1.21292600      -0.58196361      -0.83011186       0.06640303       1.30270159
H       22.66214299       2.47343790      22.98642381       0.36456722      -0.00822290      -0.12134913       0.40623099       0.12311526      -0.65653110
H        6.10432434      20.89207497      22.68466505      -0.15823100       0.12802436       0.16894441      -0.17227820       0.05480084       0.30477649
H        6.18694782       0.75891326      21.23768886      -0.01280890      -0.32666157      -0.07253832      -0.23497486       0.33496302      -0.01449512
H        4.97607350       0.36614304      22.40383880       0.31968487       0.01631277      -0.08201584      -0.43181533       0.28859395       0.31462356
C       13.52863816       4.63882370       6.44926810      -0.69436186      -0.24189932       0.48077258       1.37552595      -0.28408039       0.15347108
C       13.77612775       5.75140196       7.45588400      -0.81994332       0.71109889      -0.54587942       0.73311663      -0.02081978       0.23221397
O       14.32797443       6.88028424      26.20259718       0.36953750       0.02542161       0.64399018      -0.31974173      -0.84268928       0.76121831
O       13.43843499       5.48588222       8.64909569       0.20292419       0.80428216       0.53796768       0.18540549       0.58225626      -0.47469112
H       14.04572719       7.93909434       7.93944704      -0.03406426       0.11122327       0.05723846      -1.09360099      -0.02403617      -0.19913812
H       14.04691779       4.85008013       5.49564759       0.03545323       0.16580998      -0.13894672      -0.35462612      -0.12748580       0.21012111
H       12.45032708       4.69991376      25.49264048      -0.03281302       0.10752329       0.13060684      -0.54811800      -0.71988940      -0.41705731
H       13.89480080       3.61878219       6.84546703      -0.20868094       0.15898286      -0.01558052      -0.81213021       1.52843761      -0.40399599
C        8.19686529      23.08882070       0.50236521      -0.18338108      -0.33905051       0.29104336       2.34716606       0.92903930      -0.58409321
C        9.27498760      22.78766725       1.51788090       0.08478593      -0.59317175       0.68405675      -0.45450628      -0.87594736      -1.18000650
O        9.16010191      21.89910298       2.35327412       0.83147476       0.89560832      -1.57316180      -0.09399885      -0.16394582       1.01916778
O       10.38993925      23.42095480       1.21708248       0.21955965       1.71029292       0.44812390      -0.77933431       1.50164390      -1.06771362
H       -1.54669395      20.73931951      -3.61107555      -0.29429876       0.20049422       0.08805783       1.34231961       0.26596698       0.24890234
H        7.36089376      22.52285125       0.73391766       0.22071539       0.08745570       0.17760012      -2.07168674      -0.98430741       0.23874733
H        8.63653069      22.83039712      -0.48467485       0.25301077      -0.12580505      -0.01419280      -0.53739327      -0.00385113       0.24691546
H        8.04894179      24.16316430       0.48127526       0.45334660      -0.07581056      -0.14467222      -0.51678938       0.30675167       0.03009623
C        4.92049818      11.00962733      11.55324419      -0.28618382       0.25779058       0.03418516      -1.39481854       2.54361057      -0.24431849
N        3.75046035      10.70112410      10.67195309       0.20891903       0.41499387       1.19904909       0.69536185       0.25396347       1.45411205
C        2.65375747       9.95822089      11.10962511      -1.13988288      -0.15524308       0.09697271       0.35156211       0.23603974      -1.97673965
C        1.83385568       9.88548934       9.96858848      -0.34056747       0.06871428       0.56479797       0.29304668      -0.57528949       2.06357598
N        2.39800941      10.58172125       8.94684870      -0.20313470       0.47451760       0.20707400      -1.81730914       0.14652145      -1.49476731
C        3.48150349      11.11788942       9.41745064       0.65444634       0.44862925      -0.19092214       2.18648052       1.21853650       0.16342264
H        4.52130474      11.73664700      12.31561616      -0.10302591       0.04895094       0.01476748       0.70274115      -0.53436142      -0.53442490
H        5.88226809      11.37345565      11.13307844       0.00078946      -0.03562853       0.13499942      -0.91958737       0.07743296      -0.62183702
H        5.13927862      10.12680421      12.02707424       0.18753052      -0.39082488      -0.11675319       0.54989398      -2.30320406       1.47409511
H        2.70317439       9.43288293      12.03068613      -0.20633610       0.06682956       0.00777621      -0.20206764      -0.36338127       0.67192936
H        0.92829650       9.28209125       9.95347438       0.56969109      -0.21976834      -0.29700402       0.08513427       0.25141364      -0.62124693
H        4.09944908      11.95968325       9.05789735       0.03485634       0.09520883      -0.17515872      -0.51734704      -0.59815413      -0.44353661
C        2.69737241      20.82559625      17.17164071      -0.71704394       0.25110508       0.64382032       2.68864560       0.46415359      -0.86271095
N        1.28057217      20.68845986      17.16148008       0.10326982      -0.22722477      -0.16017765      -0.54443884      -0.21074823      -1.05026460
C        0.42299039      20.17155802      18.09163263       0.11470064       0.13559350      -0.43761409      -0.91435242      -0.38450837       0.31978196
C       -0.81988900      20.05223206      17.50122628      -1.00544710      -0.34806840       0.27263527      -1.00899208      -0.16092798       0.93318623
N       -0.69551735      20.52372655      16.23242925       0.54309325       0.26795420      -0.55232289      -0.60998774       0.02018834      -0.72685099
C        0.59189551      20.84339334      16.02955783       0.20707629       0.42885225       0.76790704      -0.83513701       0.66492319      -2.58944511
H        3.19602833       0.96992211      16.46078147       0.22908981      -0.10280146      -0.03091611      -0.70257115      -0.44978255       0.74593377
H        3.14349644       1.60270620      18.17351772      -0.13287141       0.06014850      -0.00812494      -0.17840499       0.05994265      -0.14811379
H        3.05128507      21.75028017      16.64622137       0.03951029       0.15159299       0.24972571      -0.79025185      -0.04042062       0.93652964
H        0.75967816      19.84058679      19.03547560       0.03550630      -0.00955024      -0.05156795       0.37589687      -0.25743413       0.93602449
H       -1.82166966      19.69403343      17.82163705       0.00693121       0.15308287      -0.03858775       1.17773879       0.18405274       0.18817332
H        0.92688124      21.03317182      14.97799986       0.06404228       0.16899649       0.03418813       0.37041587       0.06390443       1.29650772
C       12.11784620      19.80480924      11.21791927      -0.03581238       0.08395365       0.16772965       1.49064803      -0.60789597       0.30975068
N       11.99246335      19.82482158       9.76929325       0.30787075      -1.02369079      -0.92565980      -0.33148491       1.72674656      -0.54075891
C       11.87640151      21.00927350       9.03705700      -0.37932371       0.44143301      -0.29659391       0.22699805      -1.33411181       0.19844365
C       12.01630005      20.67864567       7.71412154      -1.53681902      -0.19266239       0.79339144      -0.53528231      -0.15206385       1.02572095
N       12.21941162      19.32350824       7.60487944       0.03683681      -0.89064949      -0.58571671       0.23742788      -0.64597332      -0.68095374
C       12.21798366      18.84446120       8.83561829       1.11934167       0.14736276       0.57032457       0.30815220      -0.41782516       1.22454429
H       11.33849537      20.30335370      11.79967193      -0.32040082       0.24561204      -0.41354790      -0.15347922       0.34805903      -0.48591691
H       13.13525420      20.18305678      11.52662138      -0.02333878      -0.13666650       0.24874468      -0.98012304      -0.11656274      -0.37232661
H       12.08729188      18.76130918      11.49142068      -0.15667563       0.28685112       0.06180666      -0.02790847      -0.50910175       0.28290573
H       11.70188896      21.90091135       9.55085317       0.10476903      -0.08837329      -0.06079482      -0.20700304       1.36809456       0.51015198
H       11.68551126      21.32723153       6.93785397      -0.07966520       0.05429229      -0.08512855       0.11314292       0.17802435      -0.90093213
H       12.51569867      17.86999186       9.23761449       0.04196361       0.12652765       0.27742153      -0.22865653       0.02746975      -0.69663107
C        6.50564182      19.24325444      16.02789925       0.67544519       0.09700367       0.29344070      -0.29917264      -1.41341043       0.42265928
N        6.75134144      18.48753958      17.31785174      -0.84523342      -0.94695743       0.22332392       0.09466054       2.82095933      -0.77759123
C        6.86681503      17.14717550      17.50648552      -0.49406007      -0.09908144       0.53275673      -0.55447972       0.49937811       0.29077053
C        6.89126204      16.97095781      18.86210926      -0.60816713       0.15857821      -0.09368704       1.27718759       0.58860993       0.77712768
N        6.96299626      18.20335861      19.56904499       0.07649631      -0.88645824       0.17469728      -0.73741925      -0.10059571      -2.62627077
C        6.84417160      19.10458329      18.52806635      -0.58231337       0.42331530      -0.48130389       0.17792006      -1.58054483       1.86671352
H        6.12139417      20.24993943      16.19517292       0.17387894       0.30277221       0.08819684      -0.47420460      -0.09981856       0.50896168
H        5.77467171      18.60351431      15.46040997       0.07955466      -0.07472042      -0.07416082       0.85942262       0.90074253       0.07682279
H        7.43769772      19.45056066      15.49428452      -0.11602769       0.01281609       0.01025978       0.19554110      -0.60222948      -0.19974622
H        7.01621958      16.55340436      16.65071748       0.13722009      -0.06529943       0.23394768       0.03107285      -1.11198831      -0.68767929
H        7.16649081      16.04916543      19.31513327       0.08099677      -0.02595819      -0.19593157      -0.12661995      -0.58994538       0.66729659
H        6.79959910      20.15652505      18.68643749      -0.16007617      -0.20072500      -0.06651505      -0.12821266       0.69432288      -0.19989672
C        8.78849180      15.94241307      23.30831280      -0.17945623       0.45051288      -0.58233435      -2.38959312       0.89810348       1.93626034
N        7.27549119      15.71207082      23.47355817      -0.53658443      -0.11986437       0.23964403       3.79991150       0.23379242      -0.28118163
C        6.37727663      15.24134816      22.55542521       0.31266593       0.25457656       0.03855824      -0.87652510       0.31270862      -0.18877840
C        5.15798954      15.33318789      23.18770918      -0.93381408      -0.27926419       0.27512173      -0.19295044      -0.03013954       1.13165867
N        5.42096860      15.83085984      24.48240906      -0.67678004      -0.12566729      -0.19282996      -2.36889315      -0.68760741      -0.96396273
C        6.68799098      16.04934865      24.61980156       1.01785926      -0.10864470       1.28225603       0.99429411       1.59019351       1.03768921
H        9.24982477      15.52058691      24.20741109       0.02205699      -0.07062489       0.08387637       0.15647058      -0.30565655      -0.37298307
H        8.93497180      17.02786277      23.34772002       0.27518786      -0.45699784       0.13282998       0.05550232      -0.10517332      -0.10580287
H        9.10968398      15.56710308      22.39191598       0.03469622      -0.43128524       0.11270214       0.57252902      -1.07043862      -1.64433908
H        6.65979071      15.02142155      21.52432092      -0.15303247      -0.04013122      -0.14387378       0.02196251      -0.10093616       0.34465736
H        4.13774542      15.07795435      22.93385262      -0.07870419       0.13080971      -0.15724341       0.14009237      -0.00952001      -0.20275652
H        7.02182852      16.71371967      25.46236761       0.09030600      -0.22713527      -0.14777201       0.20312577      -0.92149723      -0.85509360
C       14.93348739      -2.45130494      12.23921904       0.32658454       0.30440934      -0.73757936      -0.02982435      -0.65998542      -1.17289090