640
Lattice="19.152215 0.0 0.0 0.0 19.152215 0.0 0.0 0.0 19.152215" Properties=species:S:1:pos:R:3:momenta:R:3:forces:R:3 energy=-80135.5625 stress="-0.01705724000930786 0.0009076164569705725 0.0007810137467458844 0.0009076164569705725 -0.01904921606183052 -0.0003401563735678792 0.0007810137467458844 -0.0003401563735678792 -0.01980687864124775" pbc="T T T"
C       12.19024160       6.39253141      16.40461881      -1.56185936       0.94060941       0.47149305       0.06472304       0.63564599       1.35122073
C       13.06716832       5.36703560      17.00323418      -0.09074691       1.48929663      -0.59938264       2.28453302      -0.65923917       0.84744847
O       13.78197620       5.52111721      18.01651256      -1.30953923      -0.01006929       0.75467095      -0.72900498       0.55741799      -0.10149512
O       13.13613347       4.21843722      16.33070384      -0.57705276      -1.04161162       1.34015888      -0.95410091       0.07290348      -0.73734653
H       13.71335718       3.53797891      16.80850648       0.13534305       0.22597527      -0.21372438       0.39404187      -0.43133539      -0.01050258
H       12.63485669       6.95188912      15.59883661       0.28745778      -0.03307056       0.03938960       0.44075465      -0.12881541      -0.90428829
H       12.05472923       7.17148098      17.19060262       0.10912714       0.25197611       0.06831053      -0.67472929      -0.68451536      -0.35789895
H       11.32384659       5.83292140      16.09031256      -0.08007775       0.01233170       0.17831883      -0.92441404       0.47524583      -0.26619661
C       10.56318691      16.92656543      17.02678372       0.54892843      -0.49478789      -0.21164670       1.02025986      -0.55413210       0.56325281
C       11.59662267      16.59972362      15.97999908       0.66765828       0.52876489      -0.66071755       0.37554142      -3.74029112       2.90669751
O       12.30839190      17.54430215      15.48474659      -0.37290177      -1.01501471      -0.22700944       1.21636558       1.92298675      -1.93936539
O       11.94241537      15.38175399      15.86678890       0.26339995      -0.00936010       0.18053163      -0.55641967       1.48184371      -0.63620383
H       15.28549059      13.26010763       2.90332858      -0.07124993      -0.08895066       0.13036158       0.01593739      -0.46802837      -0.58259392
H       10.69515120      17.94086199      17.38452263       0.25736675      -0.20951236       0.06332801      -0.12325231       0.28303975       0.10222937
H       10.68901791      16.19151990      17.88098264      -0.06559208       0.04092244       0.02949910      -0.52851766       0.72968930      -1.02296388
H        9.62320081      16.84842555      16.52634803      -0.27484305       0.14263049       0.12469595      -1.24487185      -0.24459855       0.02617082
C       -2.13524508       4.73975723       7.06447882       0.18453024      -0.69367334       0.86582353      -0.06537747       1.52292490       0.81810737
C       -1.08074229       5.14611566       8.14360391      -0.85030826      -0.01187469       0.40838550       0.05346590      -1.16219652      -0.71290433
O       -0.48246648       4.14908290       8.85764204      -0.66129404      -0.81757367       0.50621870      -0.34812707       0.64722580      -0.48521733
O       -0.70141534       6.30578952       8.26328077       0.08280338       1.52533162      -0.35138888      -0.04475856       0.17697102       0.17112124
H        5.12679064      17.73502204       4.87716046       0.29894686       0.34997915       0.16894496      -0.00495677      -0.51654494      -0.10776798
H       -2.54065334       5.69189513       6.58482206       0.28389003       0.20947542      -0.11417330       0.56217617      -1.21434391       0.51102263
H       -2.95273046       4.15484601       7.50464658       0.31298173       0.01056220      -0.11797828       0.04140644       0.06033152       0.14052428
H       -1.62985601       4.09803471       6.36165241       0.03832014       0.15470081      -0.10104714       0.19682878      -0.24147257      -0.71365285
C       11.19723144      14.52625127       1.73531983       0.16321368      -0.07252512      -0.38135133       1.22034848       0.01326728       1.92894578
C        9.82410446      14.32569743       1.12654746       0.22277771      -0.70255140       0.06733677      -0.82920551       0.75594789       0.52060628
O        9.06615459      15.23862026       0.70267689       0.17664501       0.11676396      -0.08940989       1.32944691      -0.84614992       0.27394664
O        9.48698920      13.05396651       1.19301376       1.27761328      -0.41724131       1.08102335       0.30020672      -0.52282542      -1.01119971
H        8.49074371      12.78958853       0.58020611       0.20467373       0.09289947       0.02292917      -0.38793162       0.64730787       0.99188811
H       11.69064808      15.52536072       1.69784300       0.16593325       0.01973713       0.03055993      -0.78478009      -0.43017992      -0.41663027
H       11.86128064      -5.36063030       1.26984481       0.02169893      -0.00028551       0.19521563       0.19547650       0.04793283      -0.13290155
H       11.28195253      -4.92001873       2.87233595       0.20322448       0.18081912      -0.00676706      -0.69371516       0.42793101      -1.80540729
C       12.43914135      16.01291205       6.20668027      -0.98133021       0.44625223      -0.14144345      -0.46179783      -1.14348638       1.96450710
C       13.68017552      16.72289630       6.56411961      -0.02336558       0.78487109      -0.00408408       0.72590089       0.39979470       0.70334470
O       13.92387261      17.85626285       5.94416719       0.14197379      -0.32674891      -0.32251361      -0.66523218       0.72303998      -0.79978180
O       14.44080350      16.29101866       7.44560530      -0.35985764       0.22086733       0.55387463       0.21496379      -0.18370727       0.16061556
H       16.92963093      15.99545786      16.21896511       0.10892603       0.26231379      -0.01050170      -0.15881963       0.50369841      -1.22406423
H       11.58984587      16.63425719       6.20974888      -0.14045121       0.00854220      -0.13857093      -1.16600096       1.33482766      -0.18360548
H       12.18754120      15.23431790       6.95532227      -0.02983962      -0.07054303       0.33629449       0.71909499       0.18943396      -0.55161023
H       12.50520984      15.60899652       5.24346688      -0.31514347      -0.17882151      -0.03574864       0.13845949      -0.95196950      -1.73877716
C        7.69977703      17.78150061      11.23963093      -0.40732508      -0.07774834       0.40653041      -0.19355708      -2.84258747       1.30332530
C        8.73930211      16.74521187      11.66802137      -0.28143949       0.35794007      -0.98820877       0.45805252       0.50304711       1.63949168
O        9.61978108      16.48605468      10.67858275       0.23994143      -0.28313572       1.82448413       0.80751055      -0.40138668       0.84049487
O        8.85860271      16.30735640      12.83897276      -0.20693436      -0.46134660      -0.80856713      -0.24456835       0.54593414      -1.68633509
H       10.49963568      16.13675476      11.12924551      -0.18514832      -0.31508064      -0.18328665      -0.59035075      -0.18406308      -0.58088636
H        7.71129115      17.80619132      10.19238805       0.03952134      -0.06510019       0.00539380      -0.38973975       0.29971361      -1.59102201
H        7.89923532      18.71406112      11.66515345       0.12175083       0.25614752      -0.04334112       0.64720821       1.75241196       0.72007209
H        6.75728858      17.44153031      11.68296655       0.18333991      -0.01995508      -0.00272390      -0.25525081       0.03486685      -0.32126561
C       18.17389729      -4.16750528      -0.11414575      -0.81503896      -0.02626623      -0.59489718      -1.36104786       1.88667440       1.04999411
C       17.78715501      -3.16817534      -1.23117273       0.36787862      -0.29594354      -1.66240282       1.15528607      -1.53719234       0.16650176
O       18.35344200      -2.08603837      -1.36517673      -0.28473874      -0.62200094      -0.43573697      -0.74056327       0.19111794      -0.03870338
O       16.94931657      -3.74845932      -2.13315536       0.66188889       0.66988995      -1.23374306       0.16343021      -0.20463336       1.61162305
H       13.82920323       1.24393791      -0.98623754       0.01453693       0.14868091      -0.07245996       0.23360130      -0.26668820       0.22166982
H       17.32312447      -4.36118555       0.61431481       0.01070243      -0.16203539       0.20336454       0.88283169       0.12942895      -0.81904942
H       19.02205748      -3.73908475       0.41009297      -0.12200590       0.05057814       0.23964126       0.02389423       0.59307033       0.52438635
H       18.59294389      -5.05466686      -0.48590170      -0.05109130       0.22115297       0.29403383       0.07679874      -1.76058328      -1.00061369
C      -11.71945553      22.47029761       5.07341631       0.45000762      -0.33561640       0.20195084       1.50877523      -2.38626766      -0.12554929
C      -10.68198185      23.54989730       5.51555950      -1.18743080      -0.51650231      -0.84282955      -1.48713529      -2.12234521       0.13184243
O       -9.61298264      23.31669757       6.08737096      -0.23193410       1.07854255      -0.31300939      -0.49579906       0.35783404      -0.50590789
O        7.96470202      24.73923781       5.27705323      -0.05456140       0.66234896      -0.40731199       0.16680044       1.73232901      -0.21920496
H        7.36709216      12.55482413      -5.66080382       0.26340468       0.00209913       0.02969581      -0.06748903      -0.91972178       0.09072822
H      -11.39460514      21.97888451       4.08926141       0.16164284      -0.30101214      -0.16012329      -0.32723776       0.85125220       0.94239157
H      -12.71253187      22.88833842       4.95581269       0.07175979       0.04207046       0.05652882      -0.19950283       0.16843861      -0.15519142
H      -11.78040695      21.55486936       5.75490669      -0.04513339      -0.27388300       0.07687759       0.30473620       1.32301569      -0.34815991
C        2.12172148      -3.28850338      -2.36343752       0.00986726      -1.34402874      -0.46752014       1.65477204       1.24207664       1.19505835
C        1.97119664      -2.86518845      -3.80032799      -0.16671558       0.11710196       0.26400085      -0.21199095       0.21661276       0.04389536
O        1.99268157      -1.59819815      -4.06256081      -0.43994709      -0.23013025      -0.89636171       0.15480565      -1.16566443      -0.61826676
O        1.81913624      15.28830067      -4.59756503      -0.87222787      -0.34086100       0.46610192       0.32939869       0.82751203      -1.01604724
H      -12.00043800      24.75700769       4.58319418       0.05477744       0.54909436       0.08115548       0.40623707       0.07660188       0.10982715
H        1.69869525      -2.53808084      -1.66745701       0.05784765       0.19841811       0.17998869       0.06634380      -0.21499373      -0.30724841
H        3.23227080      -3.37604397      -2.09884193       0.17578216      -0.14749956       0.28750425      -1.13486385       0.11914256      -0.36703917
H        1.67439385      -4.24335596      -2.19920837       0.22602092       0.50448917       0.11865241      -0.39512223      -0.92342854       0.12829682
C       -2.14919862       3.93235587      12.72305359       0.56955895      -0.88959480       1.11761179       0.17999858       1.54171908      -0.08669269
C       16.02871980       3.75811224      11.54635567       0.10797662       0.29920076      -0.18938347       1.13211012      -1.17613196       1.18910599
O       15.35132704       4.81844649      11.12549693       0.25306941      -0.06015084      -0.18161290      -1.28288889      -0.25839794      -1.24498451
O       -3.33455830       2.68884563      10.98351409      -0.21716324       1.09062964      -1.40507274      -0.00460765      -0.13085061       0.17517754
H       24.31635398      -0.87236371       7.50396287      -0.23342885      -0.23783737       0.15269817       0.48682511      -0.17036152      -0.23708469
H       -2.46369394       3.41735602      13.67270651       0.14221920       0.30127050      -0.01621625       0.24966399       0.22236055      -0.97912902
H       -2.03419392       5.04836694      12.92950132      -0.12962422      -0.05560773       0.08166644      -0.24898314      -1.19751036      -0.02962424
H       -1.13841283       3.62013157      12.38134903       0.16698249       0.10299885       0.10789558      -0.45072871      -0.29954028       0.30822757
C       24.69229013      24.07678220      17.05783107      -0.06910561       0.34652317       0.42564480      -0.53370756      -0.40290076      -0.13422459
C       24.17508096      23.56422845      15.71603059       0.28224583       0.39818871       0.68625422       1.00698328      -0.38049883       1.51056492
O       23.63818924      24.31120564      14.91359825      -0.98951715       0.15427100       0.43065519      -0.52188265      -0.36884490      -0.80900228
O       24.37547302      22.22012222      15.62825636      -1.29152933       0.21374697      -0.39432487      -0.36816007       0.30192304      -1.41531003
H       24.30010452       2.72907976      14.59556804      -0.09245440       0.26836315       0.00739881       0.10370435       0.33452511       0.61302745
H       25.72112229      23.79318706      17.26711736       0.01679250      -0.21730810       0.16333695       0.15821126      -0.72925436      -0.01172256
H       23.99245216      23.59684576      17.79348389       0.26577735       0.00098823       0.05031817       0.75632226       0.86449528       0.05362731
H       24.78547398      25.16071058      17.04503299      -0.16379082       0.10746439      -0.05164145      -0.78762627       0.25925314       0.25373900
C        1.88756318      18.87926885      10.39867250       1.09807666       0.18591511      -0.05613705       2.38470483       1.86393607      -0.52463907
C        1.73559883      18.92022593      11.89544093      -0.80777287      -0.05625236      -0.05381651      -0.21605316       0.23245144      -0.95381963
O        0.88415911      19.60334108      -6.68101959      -0.15067870       0.61606561       0.28474700       0.34885329       0.08350536       0.05026907
O        2.57880241      18.07726561      -6.65319870      -0.38645698      -0.16043606      -0.06338800      -0.09870052       0.16030455       0.41117251
H        2.78598828      15.37422404      13.11319721       0.24984247      -0.16271310      -0.06957666      -0.02186671      -0.22897875       0.45942974
H        1.70010342      17.87630541      10.05374231       0.10839130      -0.26310050      -0.09040759      -0.52520275      -0.26622996      -0.57872385
H        2.98059362      19.12442859      10.00004323       0.06662747       0.01308717       0.06122884      -1.90816510      -0.52858818       1.18821323
H        1.27709926      19.70201287       9.98626107       0.15800283       0.24629135      -0.04933722       0.04635063      -0.72894502      -0.13985904
C       11.67586305      11.34459814       4.16271862      -0.04675831      -0.28164655      -0.82779245       1.81324029       0.86304307       0.47693366
C       11.44417933      10.73647032       5.55739541      -0.35258167       0.78589424       0.17012478      -0.83012533      -1.18015051       1.00418127
O       11.01328526      11.43850180       6.54776619      -0.14064491      -0.49558097      -0.00921965       0.59231383      -0.34350559      -1.28988302
O       11.64097269       9.42066403       5.67478316       0.23131825      -0.45646074       0.38344511      -0.36779308       1.88005722      -0.54882085
H        9.60853877      12.23282345       6.96321808       0.15047467       0.04856682      -0.18394013      -1.36276579       0.16007426       0.19888484
H       12.62647307      10.93070193       3.72994044       0.08201060      -0.09667814       0.18790122      -0.67869908      -0.06759369       0.40659401
H       11.95456650      12.44617172       4.30835353      -0.16177251      -0.01024899      -0.43361781      -1.00066638      -1.14597273      -0.46352535
H       10.89877394      11.11190488       3.41739685      -0.07178269       0.06029745      -0.48344896      -0.05514018       0.51188701       0.38323960
C        5.14215858       1.97007444      21.58124598       0.19772435      -0.48968870       0.03384143      -0.83136815       2.37473464       0.05582404
C        4.12161149       2.76451467      20.71373028      -0.13409795      -0.37185426      -0.45974749       0.72386372      -0.97727042       0.63697886
O        4.15604226      21.75997093      19.48495514       1.07892578       1.51156121      -0.76024861      -0.34388003       0.66121441       0.26339984
O        3.28658974       3.57174632      21.36170554       0.40453029      -0.38088890       0.14672053      -0.18996012       0.24554777      -1.68410230
H       22.45929128       3.50333270      22.39508263       0.00102884      -0.11300562       0.17224591       0.36026585      -0.43405914       0.44297582
H        5.93067044      21.92201297      21.71079342       0.01748679      -0.08310165      -0.10511486      -0.36669567      -0.96053827       0.42809129
H        5.52342594       1.21424916      20.92463754      -0.11981198      -0.12945733      -0.16093273       0.24743302      -0.93645316       0.07939190
H        4.64850184       1.70920355      22.54698923       0.01702662       0.07326743       0.01480936       0.79553968      -0.26773044      -0.71799850
C       12.84502866       3.43002817       6.78513852       0.42459716      -0.29931355      -0.64302421      -0.82131183       1.10682833       1.57378483
C       13.16290919       4.59147554       7.74008174       0.30012786      -0.31156146       0.04151406      -0.61437345       0.93484330       0.61637497
O       13.16476488       5.80709760      26.28422319       0.23370555      -0.54463564      -0.65298866       0.35196263      -0.46025121       0.24376845
O       13.30362711       4.51525007       8.98030994       0.04710540      -0.30154513       1.45810399       0.25324124      -0.54747277      -0.91185552
H       13.47239297       6.60435290       7.79700174       0.12089707      -0.06020240      -0.23172725       0.03760028      -0.25213629      -0.64232290
H       12.38021085       2.62183674       7.34589631      -0.27212789       0.08197615       0.15351062       0.26230499      -0.24969789       0.21941479
H       13.75911889       3.13508522      25.47719357      -0.15934191       0.07988392      -0.20230317       0.79024959      -0.53485727      -0.64170879
H       12.09030430       3.75754537       6.07042642      -0.02477363       0.04112288       0.15877384       0.14593159       0.20850152      -0.29933488
C        8.17696828      21.63848261       0.07674702       0.22681040       0.96105313       0.82851244       0.52939731      -0.10223657       1.09967947
C        9.64164554      22.03688563       0.32633063       0.22907667      -0.31700302       0.54613579       0.84570408       1.27471840      -1.31936526
O       10.38136583      22.35008424      -0.65452669      -0.69430547      -0.03612388      -1.01412306      -1.20880449      -0.82550615       2.41210127
O       10.01593693      22.20742218       1.64475357       1.35430615      -0.03824208       1.22376601       0.60244256      -0.13707089      -0.98625636
H        0.06428711      19.23669889      -1.03649716      -0.08254315       0.24133274       0.16770864      -0.35865128      -0.51331019      -0.07471424
H        7.46319811      21.53352154       0.94179906       0.00749904       0.03045171      -0.01052651       1.18615007      -0.11636094      -0.60411656
H        8.15292091      20.77889870      -0.59408710       0.57402399       0.07510310       0.11622489       0.05424905      -0.54077393       0.27229431
H        7.80111892      22.41378988      -0.55189921       0.06237302       0.02719705       0.21138691      -0.51963419       1.00785804      -0.47374791
C        6.18475634      11.16796011       9.34544001      -0.59444978      -0.28507653      -0.40667243       0.97856712       0.15444982      -1.57606232
N        4.79738786      11.46957229       9.78065821       0.49542366       0.06875521       0.50821749      -0.51988125      -1.46173036       0.96247792
C        4.23442593      11.06644293      11.00916442      -0.11672977      -0.91978609       0.37978010      -0.38026309       0.38547105      -0.72176921
C        2.85405362      11.13499870      10.82362865      -0.62210716       0.88468430      -0.61646764       0.17760563       0.17043713       0.99406672
N        2.51947632      11.64225254       9.59043219       0.04846757       0.35300117       0.19108468       1.30629957      -0.31140709      -0.29235905
C        3.72221133      11.77990216       9.00333140      -0.45846373      -0.50101185      -0.61409644      -0.31338570       0.75425714      -1.78358245
H        6.80851024      11.97658294       9.76571948       0.09191588       0.32613438      -0.16175843       0.06471984      -0.23598003      -0.43568778
H        6.26638235      11.16277601       8.17217039       0.28688389       0.03548183      -0.31300108      -0.34872043       0.27772188       2.23336339
H        6.65857241      10.20383729       9.69858231       0.07446854      -0.24169693       0.34535423      -1.33005488       0.58243239       0.02261584
H        4.85111864      10.91958573      11.87673666      -0.08393845      -0.29478188       0.08350809       0.18856207      -0.23653756       0.18939786
H        2.07354468      10.86296883      11.53289036       0.06654737      -0.10124827       0.08212916       0.15892047      -0.01089385       0.02067399
H        3.87385883      12.08559702       7.95407298       0.20028336      -0.11902989       0.05379351      -0.11815035      -0.23177022       0.72480917
C        1.63709797      21.87011241      14.86322643      -0.14594824       0.50261934      -0.36307480       0.59794819       0.77427816      -0.44533128
N        1.37390212      21.25497575      16.13238191      -0.71734290       1.32459350       0.15744438       0.09792626      -0.92122358       2.38577843
C        2.39013076      21.03586749      17.11614510       0.28922390       0.21069726       0.32894981      -1.63194537      -1.02587676      -1.09883261
C        1.96624069      20.08819179      18.00245875       0.25979440      -0.88250065       0.44394410      -0.38741729       0.08413334      -0.25017449
N        0.68495283      19.84186589      17.57832482       0.20906504      -0.75596328       0.56441156      -1.38277531      -1.06825507       1.31651020
C        0.26618456      20.57115320      16.55015389      -0.93528780       2.06199713      -0.20914150       2.44277596       0.02843476      -0.46955162
H        1.92598723       1.94823297      14.11099230      -0.35601438       0.23447061       0.13190921       0.02753169       0.55776924       0.33164829
H        2.41117698       3.50207655      15.07109844      -0.23641986      -0.11706816      -0.12229532      -0.21781048      -0.70880044      -0.64465660
H        0.75767730      22.40949334      14.52162519       0.12707008      -0.29168590      -0.02061199      -0.41156161       0.03607008      -0.18922143
H        3.24039893      21.60694289      17.10333654       0.02992337       0.08165451      -0.14081848       2.02638888       1.12057769      -0.04348529
H        2.34353611      19.59102788      18.93246888      -0.23550018      -0.40711338       0.48451566      -0.13141614       0.64681983      -1.12115955
H       -0.72979502      20.63285098      16.18433693       0.00627537      -0.07725739       0.04564796      -0.57874042       0.17783919      -0.14858362
C       13.42841938      18.18293302      10.15094073       0.50724592       1.22919591      -0.00876546      -0.91336375      -0.27909100      -0.37129602
N       12.21090940      18.98697978       9.75960612       0.11140308       0.48687101       0.05107770      -0.24529094      -1.24166536       0.62438858
C       11.12957433      19.37764825      10.57404086      -0.07666476      -0.90122860       0.17955733      -0.50428444       1.37649179      -1.38226855
C       10.32060943      20.15687717       9.68909236       0.34518667       0.10745152      -0.27641867       1.21188831      -1.56036460       0.63167346
N       10.82937428      20.11154656       8.42386368      -0.29445374       0.68035005       0.07452580       0.27999049       0.50070381      -0.69977617
C       11.95972802      19.43085361       8.48695092      -0.09787485      -0.14840511       0.45568798       0.00477964      -0.09907913       1.10994792
H       13.84571191      17.59378375       9.29200778       0.09053235      -0.11377817       0.14382556      -0.37207463       0.97117221       0.25027648
H       13.20966153      17.38721211      10.89859096       0.01048902      -0.11476821      -0.07765020      -0.21291542       0.91175056      -0.06832547
H       14.08820186      18.95219540      10.51780735      -0.05510801      -0.07820399      -0.44663551       0.89604902      -0.13318266       0.28315267
H       10.95563151      19.10388144      11.61861963       0.18246368       0.07548248       0.18602236       0.39938408      -0.05356511      -0.46870750
H        9.38805664      20.66115016       9.76187499       0.14525033       0.02483996      -0.17386261      -0.70493048       0.32917890       0.78372002
H       12.66154324      19.24491225       7.70494044       0.04340098      -0.12663116      -0.08482351       0.34113008      -0.02754861      -0.54991829
C        5.14573906      18.63256794      15.68477123       0.96302658       0.47759153      -0.57931671      -1.06878102       1.44015419       5.14176273
N        5.92521732      18.37700730      16.98521191      -0.99948586      -0.54487147       0.99446206       0.37151209      -2.04793787      -1.50272751
C        6.62618842      17.14139849      17.15979596       0.45632270      -0.29641192      -1.09497171      -1.19904530       0.79899985       0.28650224
C        7.08002944      17.23080336      18.48361737       0.43413258       0.32305465      -0.04202793       0.78337270      -1.44975042      -1.83079278
N        6.81213870      18.43214142      19.02856446      -0.55978336       0.42616164       0.22602389      -0.07428026       0.24739319       1.50024283
C        6.10191155      19.07275185      18.14042506       0.33427144      -0.64347009       0.54175663      -1.23046315       1.83253539      -1.28512096
H        4.23533024      18.05540342      15.72966632       0.02015918       0.13305260      -0.04329211      -0.38204685      -0.40547591      -0.38683519
H        5.79883859      18.43507111      14.95281989      -0.00923088       0.23688222      -0.30812292       2.25661469      -1.02222824      -3.20569181
H        4.90398461      19.68912200      15.71131127       0.06558084       0.22638755      -0.22957214      -0.19903153       0.30067703      -0.24958195
H        6.56486298      16.35997284      16.36046694       0.13461698      -0.25349255      -0.04977495       0.20600066       0.66362685       1.05881846
H        7.67819073      16.49415952      18.97968776       0.06001948      -0.25848536      -0.25121600       0.13518324      -0.29523396       0.26667094
H        5.70252669      20.08282689      18.21780360      -0.13595741      -0.10899887       0.27847281      -0.01013616      -0.08631557       0.15470445
C        7.96426739      14.12935930      23.41648100      -0.40139193      -0.85438153      -0.42028409       0.43434849      -0.04935265      -1.92005146
N        7.33495017      15.40694853      23.22523914      -0.86784649       0.79470350       0.30164666      -2.68872952       2.28589654      -0.03279501
C        7.58970782      16.41318450      22.29853633       0.08947345      -0.09161970       0.79203568       0.90711474      -0.22540838       0.00434992
C        6.73296765      17.45030297      22.54876128      -0.21740648      -1.64934598      -0.48075771      -0.04238157      -0.72461736      -0.96223867
N        5.91662520      17.07718999      23.57339568       0.22558950      -1.01819527      -0.23489677      -0.80760705       1.90550375       0.42208833
C        6.29141695      15.90641890      23.98694609      -0.37826437       0.43218450      -0.06053425       0.85173011      -2.44076920       0.64900255
H        8.11864946      13.60576886      22.40026615      -0.35281934      -0.08476301      -0.14066527      -0.49197963       0.57636690       1.67932308
H        7.43337107      13.59644293      24.18661362      -0.20080855       0.02707594      -0.07222949      -0.27761257      -0.65220857       0.07680947
H        8.90524946      14.44726442      23.78009954      -0.03505454       0.32180956       0.12324377       1.65672398      -0.52369756       0.61369318
H        8.35422482      16.35198462      21.52737808       0.18269767       0.04599624      -0.06371504      -0.18341804      -0.36615843       0.04482698
H        6.44916562      18.19926905      21.85155615      -0.12019769       0.22175026       0.00557619      -0.05101997       0.88300776      -0.26069003
H        5.90143897      15.40030256      24.85224182      -0.17306974       0.12143224      -0.18148247      -0.08978075      -0.17630103       0.18232268
C       14.97062335       0.51357666      13.59389082       0.77755317      -0.13221156       0.10265151      -0.61602712      -0.48395035      -0.62412572
N       15.98410584      -0.46120178      13.98475037       0.74665861       0.07266705       0.30288404      -1.07157600       0.71911621      -0.69671702