640
Lattice="19.152215 0.0 0.0 0.0 19.152215 0.0 0.0 0.0 19.152215" Properties=species:S:1:pos:R:3:momenta:R:3:forces:R:3 energy=-80136.1328125 stress="-0.01731806993484497 0.001393804675899446 -0.0014994499506428838 0.001393804675899446 -0.017084727063775063 0.0005881523247808218 -0.0014994499506428838 0.0005881523247808218 -0.020270895212888718" pbc="T T T"
C       15.05191082       7.00310347      17.85582828       0.39908294      -1.04868207       0.09775116       1.17055428       2.54200482       0.03613073
C       14.56831431       6.20783766      19.01210181      -1.24748833      -0.43940059      -1.10020830      -0.29558560      -2.79164648      -0.59938502
O       14.70081179       4.85730750      18.78038116      -0.48035657       0.89569648       0.31640407       0.15563339       1.09569514       0.40122843
O       14.04623474       6.65826506      20.03795232       0.06697062      -0.56347452       0.19725318       0.27447343      -0.18059194      -0.54542303
H       15.21111149       4.62899601      17.79773795      -0.26373959      -0.03107816      -0.28483318      -0.64232415       0.07071284       0.47316435
H       15.58241610       6.56633242      17.01406880      -0.10233720       0.08098010      -0.29183762       0.11933873      -0.87963820       0.31713763
H       15.73320536       7.78768297      18.27584857       0.23019320       0.05345431      -0.23397056      -0.31387752      -0.33397555      -0.24766135
H       14.26996594       7.58051161      17.37928220      -0.09331476      -0.09455149       0.00305695      -0.78775126       0.27626354       0.10521634
C       10.45693182      13.16610074      15.75356415      -0.64140013      -1.03373785      -0.51117016      -0.82297468       0.02751768      -0.98292398
C       11.96735764      13.28829066      15.59439857      -0.82073531       0.53263840       0.18866666       0.39187646       0.82176369       0.70838648
O       12.49793849      14.25248991      16.37328994       0.04964883      -1.06012572      -0.29891359      -0.29344714       0.05555169      -0.25826725
O       12.66647883      12.67508844      14.77325150       0.75498402       1.53583506       0.16051595      -0.75552750      -0.42842448       0.16927606
H       15.01502950      12.89269488       2.15462584       0.36163631       0.02774222      -0.01549216      -0.35015857      -0.55299968       0.39650914
H       10.06144968      13.74209874      16.60001958       0.19093954      -0.02901378       0.05442982       0.30611962      -0.47742245       0.45963019
H        9.96512460      12.15412556      15.64422137       0.51456241       0.19826627       0.04938524       0.90476823       0.88826668       0.24187055
H       10.08490169      13.79058741      14.91856409       0.12506868       0.07599767      -0.05768492      -0.26215339      -0.38057899      -0.22770418
C       -1.20357772       7.50430948       8.41855698      -0.02148629       0.96182563       0.10360239      -0.76428843       1.65761590       0.70774817
C       -0.67505001       7.24332175       7.06761446       0.80146213       0.18793582      -0.00604886       0.76308972      -0.17332634       0.39367703
O       -0.28430339       5.96453293       6.86251597      -0.29335057       0.07850307       1.28976842      -0.02647275       0.62397325      -0.76977694
O       -0.52278222       8.16616198       6.25615634       0.11269636       0.21504417      -1.10131009       0.21699093      -0.74932039      -0.35758239
H        4.31066811      18.56899770       7.62031988      -0.15562866       0.24515401       0.07025700       1.12273192       0.01002784      -0.16992772
H       -2.30677700       7.58981469       8.37067938       0.09646410       0.22528824      -0.03345119       0.22886939      -0.36847013       0.29124603
H       -0.84786316       8.46101392       8.84734034       0.09653037      -0.15531359      -0.22943455      -0.09412751       0.13618752      -0.85750890
H       -0.83319891       6.88242354       9.19665204       0.11892597      -0.11870395      -0.04964800      -0.06611489      -1.50026369       0.56384128
C       10.35576019      14.91688584       1.69106638      -0.88302493       0.04366543      -0.56652902      -1.34743881       1.57691801       0.83571219
C        9.13094360      14.15084900       1.25499836       0.79960475       0.06302593       0.61044738       3.24560523      -0.21700877      -0.96491069
O        8.03645326      14.37333263       1.69161297       0.37222960       0.24562547       0.39123414      -2.64148283      -0.26042694       0.46800643
O        9.54212950      13.31407897       0.28070890       0.96571070      -0.88728974      -1.22713297      -2.04842877      -1.73590469      -0.82952052
H        8.72695477      12.69869761      -0.08717173      -0.15892617      -0.07816553       0.25122060       0.40951598       0.82661438       0.52313131
H       10.54314473      15.57217795       0.82770748       0.12919818       0.17637177       0.08817884       0.57034516       0.06286424       0.03641643
H       11.23514242      -4.87189687       1.89136446       0.09741820      -0.22865020       0.44923680      -0.32375067       0.41669446       0.27891731
H        9.89870646      -3.53376531       2.47406850      -0.10390257       0.09554339      -0.07493619       1.51976514      -0.93001318      -0.39277446
C        9.72422999      15.97059583       6.12452305       0.16272664       0.17664077      -0.89133861      -0.81023699       1.34920347       1.86602998
C       10.37550943      16.79240328       7.22757223       0.46859357      -0.46344333      -0.24674540       0.78594089      -0.28170538      -0.16527832
O       10.77397993      18.05258669       6.94177127       0.66584409       1.07570184      -0.98054899       0.01558679       0.06607777       0.09456253
O       10.60506357      16.35797347       8.34766250       1.34500089      -0.78962283       0.45059323      -0.38147658      -0.14248253       0.40050393
H       17.24586554      17.74967492      16.15607133      -0.10631045       0.24473067       0.22950562      -0.15023577       0.76504213      -0.72219253
H        9.03337030      16.64518704       5.67925531       0.09270037       0.02672581       0.23453486      -0.37069058       0.61525118      -1.30695558
H        9.09779555      15.21650241       6.54349592      -0.18615658      -0.02210325       0.16589536      -0.34447104      -0.95200193       0.78850317
H       10.42002869      15.50320166       5.49987249      -0.00759785       0.02191997       0.15441637       1.30463266      -0.44286248      -1.40051889
C        9.08930385      17.97497792      11.54149714       0.53044256       0.57194804       0.25699651       2.25391245      -0.98037440      -0.31503445
C        8.70002217      16.97774125      12.54241598       0.36133583       0.32344803      -1.08330179      -1.39384055      -1.37513661      -0.48958158
O        9.40577489      15.84500352      12.62645001       1.11089498       1.01009294       0.86835051       0.42164141      -1.11554623       0.62986237
O        7.66828043      17.01626329      13.18407993       0.35652635       0.52681368       0.16867360      -0.73422480       0.40936270       0.85205418
H       10.27375455      15.78869074      12.16336283      -0.06321367       0.16464563      -0.06084421       0.79301727       0.06833245      -0.48101789
H        9.06267008      17.53739516      10.50870889       0.02294466       0.02091767      -0.03848371       0.09707174       0.31923574       0.70147794
H       10.16129170      18.11883722      11.84658446       0.07817506       0.09165598       0.07783031      -0.61405426       0.85629344      -0.84617943
H        8.41832762      18.78190200      11.66571486      -0.04411306      -0.13191921      -0.10729369      -0.35839897       1.34700549      -0.12635355
C       18.53142825      -3.99179492      -1.72109003       0.08417588       0.41169263      -0.28494472       0.96074790       0.23180303       0.83503950
C       17.45875661      -3.08228519      -2.17835138       1.14345469      -0.00621668      -0.16486617      -0.17624068      -0.58704686      -2.05819154
O       16.35203744      -3.46618113      -2.58529423       0.69950797       0.06613237      -1.04902639       0.21188802       0.26730740       0.59935987
O       17.93482811      -1.84809562      -2.36400548      -0.89656358       0.69327993       0.22309406       0.01202512      -0.09823304       0.96782273
H       15.14224722       1.73687921      -0.71057101      -0.12326387      -0.36633913      -0.13664132      -0.59066689      -0.07900806      -0.14869344
H       18.80686622      -3.54581830      -0.74905475      -0.05642498      -0.02122042       0.04646150       0.16459003      -0.57540995       0.16093634
H       19.46436464      -3.84700185      -2.32155470      -0.27504003       0.17554051       0.01452007      -0.87441456      -0.33744016       0.11974251
H       18.20622971      -5.03391848      -1.63886206       0.06550581       0.06914658       0.33715698       0.22039375       0.16616236       0.00571297
C      -11.65697652      23.16439860       6.23242742      -0.24917169       0.31688186      -0.97483699       0.94774878       1.66102409       0.14524616
C      -10.36789023      23.99463626       6.28405072       0.27718468      -0.15770782      -0.03562256       1.06722522      -1.44803572       0.84679204
O       -9.35894983      23.47891485       6.82496512       0.63845234      -0.57363980       0.16745335      -0.42276013      -0.09294200      -0.00998235
O        8.85847966      25.24183795       5.90637853      -0.67771690      -0.41261004       1.19505702      -0.63906777       0.67460120      -0.87517244
H        6.49273324      11.50816001      -4.76002792       0.30815134       0.28473224       0.09080890       1.54623020      -1.31743431      -0.59176850
H      -11.95611868      23.29124638       7.26642208      -0.16209120       0.14793640      -0.21274256      -0.78636181      -0.34197485       0.34327894
H      -11.43552750      22.14438194       6.03155712      -0.08229405       0.20346591      -0.12883710       0.32941645      -1.00266325      -0.15471177
H      -12.41707559      23.51548544       5.55367543       0.18427698      -0.04796470      -0.14786498      -0.31463757       0.37264636      -0.28275278
C        2.90420304      -3.48884562      -2.42331560       1.37196822      -0.57299185      -0.80838734       0.92311192      -0.05706462       1.07332575
C        2.83247558      -2.86187164      -3.75353174      -0.72081425      -0.77292666       0.31215215      -0.89923674       0.88762778       0.48316872
O        1.62153191      -2.40813375      -4.10225847       0.07290932       0.36160763       0.85440751      -0.22641182       0.43699646      -0.31649536
O        3.81029958      16.50744428      -4.42725855       1.05571810       1.87937441       0.05396982       1.60297322      -0.07600629      -1.38624585
H      -10.98459704      25.44162248       5.07606282      -0.06935583       0.17750534       0.26140902       0.13483004       0.19324359      -0.07344376
H        2.23955616      -3.05688605      -1.68282794       0.02756255      -0.08590891       0.16152679      -0.51643598       0.16383165      -0.01101307
H        3.93470282      -3.30696075      -2.02193144      -0.17404448       0.00827681      -0.10023490      -0.65228373      -0.51237482      -0.32931966
H        2.67880755      -4.54782883      -2.53519255      -0.21040567       0.08424247       0.00958706       0.28541321      -0.38555616       0.10168010
C       -3.24446191       7.04512012      13.99168518       0.06875280       0.89754516       0.75976402       0.30856386      -0.58926451       1.54200816
C       15.55030169       6.53695786      12.65025633      -1.17867187      -0.02487484       0.33851572       1.27217722       1.09894085      -0.51936758
O       14.25295278       6.45242810      12.42411214      -0.49738839       0.22619039       0.17769734      -1.35461676      -0.29552168      -0.81815869
O       -2.75943253       6.36804415      11.78479445       1.03503149       1.17015692       1.03108068       0.68819785      -0.64270425      -0.88504481
H       25.13794668      -0.16233304       4.94422750      -0.08788789      -0.00452906       0.02242952       0.68011010       0.28176233       0.63190460
H       -3.62968021       6.30122771      14.69626080       0.14720964       0.26345134      -0.11208986      -0.23128487       0.00990248       0.44212061
H       -3.69602870       8.00634590      14.21585409      -0.17896752       0.09492456       0.17343645      -0.33910623       0.27313277       0.00111487
H       -2.16830601       7.10821070      14.23218928      -0.02432718      -0.23737427       0.12395092      -0.20327598      -0.02786606      -0.62919092
C       27.27989136      22.33883272      16.45557652       0.26596992      -0.19563222      -0.90557074      -1.68391013       1.36825609       0.54559016
C       26.06272183      21.73877875      15.76697097       0.27099305      -0.03982844      -0.69197398       0.18843257      -0.78009039       0.41139707
O       24.93061277      21.79813356      16.27527080       0.84202245       1.58131511       0.42639174       0.91069871      -0.15997040      -0.99111927
O       26.36589918      21.09991995      14.58719266       0.85512137      -0.02672420      -0.78879670       2.04911685       2.03885007       1.81647253
H       25.63729388       1.42860263      14.29334015       0.03305600      -0.17773587       0.15376178      -2.40311790      -1.45708311      -0.83653826
H       27.19329940      23.40371784      16.13094011       0.09225435      -0.04777873       0.27359494       0.52826732      -0.26882178       0.20063290
H       28.26700875      21.97826719      16.19006126      -0.04372856       0.31258715       0.06870459      -0.08288437      -0.36958766      -0.11521178
H       27.03999166      22.40810882      17.55858483       0.21336523       0.39048376      -0.05328263       0.55686873      -0.38248110      -0.98142505
C        1.08206454      19.31806507      10.97858942      -0.30801572      -0.41170680      -0.56233163      -0.84013587       0.98593998       0.28083098
C        1.11919990      19.25219377      12.49368468      -0.26421699       0.45699665       1.46837649       0.20480567      -0.33784062      -1.32225144
O        1.25843387      20.35779775      -6.00200855      -0.20800438       0.50694802      -0.97943525       0.13474092       0.20411175       0.34979114
O        0.95450726      18.13480004      -6.14668840      -1.86065706      -0.28004654       0.54532514       0.16593948      -0.72140223       0.57082605
H        1.58320828      14.43473518      10.24459258       0.17012232       0.25898605       0.17548881      -0.49127266       0.37100941       0.19218504
H        0.71901270      20.31294083      10.69316942      -0.08992896       0.12223523       0.10835962       0.21425554       0.02285664      -0.20310251
H        0.33101565      18.59672219      10.69762851      -0.21521515      -0.03245784      -0.44950984      -0.43030715      -0.37959155      -0.34321958
H        1.96381603      19.08310417      10.39568415      -0.05065393      -0.09896559      -0.31032159       0.74307382      -0.03274384       0.21865973
C        9.33726189      11.98824404       4.66827035      -0.15027712       1.01693866      -0.56378079       0.36477765       1.12738347       0.87939954
C        9.31886596      11.03996427       5.86351637       0.10092550       0.69380534       0.15135501       1.03281438      -0.38584667       0.19873857
O        9.39779104      11.57834673       7.01040098      -0.88884401      -0.43183235       1.07707945      -0.17253751       0.06889986       0.22601748
O        9.33245436       9.76155581       5.65600910       0.42082612       0.41207875       0.71988489      -0.16984665       0.68341291      -0.47913271
H        8.95870628      12.93668164       8.12289827      -0.03572809       0.18222424      -0.06462425      -0.37318093      -0.23581426      -0.50772667
H       10.35534082      12.34587808       4.33776549       0.04529068       0.17383740      -0.19280129      -0.74280250      -0.86065376       0.06868032
H        8.87599149      12.93589544       5.00019269      -0.00664474       0.13385388      -0.29667595      -0.14006226      -0.17862815      -0.06586136
H        8.71779093      11.56251205       3.90818676       0.15300902       0.03866154      -0.31470787      -0.05143483      -0.19203356      -1.15980554
C        5.30254458       2.24053161      19.54187832       0.68966387       0.60357166      -0.54387038       0.08788514       0.63862860      -1.48015249
C        4.48560295       2.49829510      20.73170379      -0.11208260       1.22951738      -0.55429995      -0.61691308       1.36653042       1.55798042
O        3.25633400      21.83630503      20.74199611      -0.08351944      -0.29948078      -0.82974928      -0.01330687      -0.55679131      -0.19792980
O        5.22486258       2.69440726      21.84247086       0.11024597      -0.56551553      -0.49375107      -0.41912282       0.10183111       0.48089164
H       23.74258932       3.14803507      22.68905267      -0.36440382      -0.13573166      -0.32441746       0.35719195      -0.49157789      -0.45304590
H        5.38212002      20.33173625      19.29411359       0.20694935      -0.34099596       0.06153141       0.14206453      -0.12287104      -0.18541443
H        6.27580794       2.68212313      19.67105672       0.08570364      -0.08093265      -0.19691919       0.90634668      -0.20907556       0.42480966
H        4.95805806       2.83645800      18.66389848       0.19748758       0.02009502      -0.02436312      -0.33436003      -0.72465003       0.35531551
C       13.81420553       4.85767095       7.93351905      -0.10403815      -0.34980299       0.15143941       0.60996878      -1.46125913       2.95806074
C       13.94580195       6.12848071       8.79382042      -0.21190903      -0.05928569      -0.55325820       0.36717546       0.28179955      -1.76345325
O       14.50249053       7.08461937      27.27205498      -0.99723304      -0.65726308      -0.93361374       0.32929689       1.18814969       0.17208511
O       13.45624533       6.27241277       9.93752855       0.65131218      -0.37508958      -0.29206542      -0.23188518      -0.54135156       0.70075089
H       14.35806398       8.40362110       8.64108704       0.18041059      -0.11756954       0.04258603      -0.26571843       0.13681471       0.52494931
H       13.40184939       4.02477132       8.61738863       0.15933872      -0.22094976      -0.33370834       0.45731372       1.14778924      -1.38330710
H       14.75780203       4.49827244      26.63278607       0.11573316      -0.01722782       0.05464146       0.03854550       0.31824654       0.43078500
H       13.19114483       5.05680076       7.11055570       0.38977165       0.39099023       0.33339002      -1.36750054       0.24091417      -1.17526019
C       10.90552182      23.10126377       0.12160576      -0.09215860      -0.78836932       0.66331654       0.11814064      -0.86665750      -0.01685828
C        9.80821771      23.62476305       1.03279505      -0.48554014       0.52012474      -0.20435983      -0.68190771       0.18605000      -0.59243608
O        8.67140562      23.78591718       0.58134451      -0.59585848       0.00932171      -0.49833644      -0.16845524      -0.27321106      -0.14196390
O       10.06047899      24.02650815       2.28156662       0.59770903      -0.55026460       0.02485827       0.46102285      -0.48782879      -0.03613222
H        1.38974699      20.14666248      -4.89322240       0.17094680      -0.11300273      -0.09781880       0.13075893       0.82301044       0.23404793
H       11.41150712      23.95887364      -0.27445703       0.32353749      -0.10004115      -0.15713714       0.73391449       0.97208589      -0.20282316
H       10.49633434      22.64894098      -0.83820081      -0.10430792       0.05734733       0.17381970       0.25740063       0.01431571       1.50959086
H       11.68203091      22.51654854       0.67805414       0.05852761      -0.45099231       0.03904311      -0.66125679       0.04932153      -0.61090517
C        5.75753468       8.53074631      11.46532113      -1.02709028       0.82869189       0.32865438      -0.58128673       0.68876612      -0.24163923
N        4.84949513       9.60388489      11.07198913       0.69442389       0.13174202      -0.97141276       0.11516082       2.19268942      -0.14260370
C        5.19642272      10.70512225      10.24638948       0.15971860       0.83758451      -0.31594023       0.24334049      -1.31651139      -0.12806126
C        4.05618520      11.45603436      10.05834948       0.07705303      -0.39169508       1.19264342       0.18153894      -0.58942354       1.45477057
N        3.03338407      10.90762954      10.84492083      -1.19443055      -0.48697062       0.42304871       0.47683418      -0.11686844      -0.05793712
C        3.55919385       9.83411229      11.47018532       0.07090949       0.00317271      -0.08599987       0.37123555       1.60157847      -2.19163346
H        5.09120410       7.78321854      11.86478840      -0.05852873      -0.36601783      -0.19662747       0.16823657      -0.75965148       0.38471118
H        6.49412908       8.89078760      12.20015475       0.19181765       0.05056884       0.17951845      -0.08324027      -0.15775937      -0.17712525
H        6.20434210       8.18394440      10.53747034      -0.09023307      -0.01279686       0.00571639       0.46122575      -0.42985925       0.03072769
H        6.22406169      10.76484346       9.88668979       0.18840353      -0.06992827      -0.27267067      -0.29140693       0.20911153       0.02840091
H        3.98991142      12.44405397       9.62447210       0.01655812       0.01215297      -0.06882851      -0.17020014      -0.08312738      -0.19482678
H        2.98786204       9.20707637      12.07031686       0.04744268      -0.11336577      -0.00631761      -0.78221619      -1.07525110       1.10973132
C        1.24474013      19.10950066      19.07926320       0.51848488       0.24459182       0.10098620       0.48087347       0.81088817      -2.36515784
N        1.51130916      19.95674308      17.84219123      -0.58941185       0.13419798      -0.00549935      -0.92344904      -0.71205038      -1.31567216
C        2.45949387      20.96128248      17.62303624      -0.06143260      -0.33257962       0.71919706      -0.61934316      -1.09727049      -0.11232740
C        2.58005344      21.10736550      16.25291566       0.17664139      -0.86512504      -0.31568572      -1.14795005      -0.46748796       1.20048404
N        1.64226574      20.31743266      15.64138619      -0.69175752       0.27404556      -0.12065557      -0.70044589      -1.36117864      -0.02202284
C        1.03678620      19.58482574      16.59008725      -1.57310829      -0.41820276      -0.55086717       0.33372313      -0.02904832       0.94325447
H        0.19274347      -0.17589772      19.26861462      -0.13336751       0.07563810       0.02601484      -0.56383407      -0.11270458      -0.16658568
H        1.67473261       0.52177772      19.84282326       0.10900330       0.12404876      -0.13456244       0.81261003       0.73233056       1.76553154
H        1.76531875      18.17097188      18.91982615       0.13215365      -0.17025257      -0.05525864      -0.04965249      -0.31480515       0.17726971
H        2.86979669      21.37516235      18.50288143      -0.08516496      -0.21319653       0.07310029       0.65128547       0.78359020       0.49302721
H        3.32478672      21.52493048      15.65140671      -0.15657221      -0.20810491      -0.03745007       1.16752279       0.99653721      -0.52136475
H        0.44317766      18.66392981      16.49824686       0.01250803       0.18009040       0.02319304       0.04646093       0.63117790      -0.34307820
C       10.60146216      21.26841807       9.74036091       0.15031846      -1.15872446      -0.38643031       1.45498109       2.28443933       1.31138968
N       11.93123917      20.71028327       9.88577814       1.44980465      -0.54078650       0.66499478       1.54259300       0.08071348       0.64017850
C       12.38678697      19.41429157       9.62438608      -0.95990704       0.72580099       0.42629898       1.06895101       0.66540587      -0.01668073
C       13.77881005      19.45399411       9.81138392       0.33388618      -0.55635376       1.05040092      -1.04378033      -0.48481524       0.33484003
N       14.14220424      20.69711751      10.26116387      -1.01890790      -0.11973950      -0.23255000       0.88931286       0.19104299      -0.13599685
C       13.07016700      21.46598758      10.29424199       0.33621082      -0.70053610       1.66942510      -0.92409718      -2.59378791      -0.72810012
H       10.61350605      21.97141682       8.91753474       0.07046856      -0.00617239       0.08280618      -0.40376022       0.07388993      -0.73278356
H       10.40193215      21.91146097      10.63884427       0.05350335      -0.21244274       0.27406750      -0.01120426      -0.63379800      -0.42994055
H        9.87923756      20.52590958       9.67101136       0.13261117      -0.18463121      -0.01379628      -1.43083191      -1.44534993      -0.32005203
H       11.77568927      18.56788886       9.34510065      -0.13582830      -0.21210755       0.15062037      -0.38881287       0.18706274      -0.09614302
H       14.48268124      18.59946583       9.74243041      -0.09443122      -0.21526939       0.19117694      -0.44387102       0.76889455      -0.02721724
H       13.10190715      22.49154595      10.55975918      -0.06249582      -0.05148371      -0.09291441      -0.40275961       0.84279233       0.24282247
C        6.56862674      15.21544476      17.05868071       0.66032739      -0.81946604       0.37998729       0.93124384      -0.62357378       3.26049376
N        6.92076576      16.64585222      17.28819922      -0.33575117      -0.10732012       0.00260120      -0.58433521      -0.55679464      -0.22145116
C        6.30034751      17.50893635      16.43658645      -0.01711701       0.08038805      -0.21897863       0.32569396       1.01521957      -1.55176008
C        6.14036860      18.71518994      17.04805032       0.64598684      -0.06244245       0.02297780       0.21288922      -1.12404299       1.89995873
N        6.59176398      18.54737456      18.41090845      -0.86169342      -1.43631713      -0.90050668      -0.50604159       2.65902328      -1.26453900
C        7.11957213      17.38098898      18.47423488       0.34152366      -0.28496496      -0.29834417      -0.66608679      -2.25368452      -1.53237581
H        5.62888383      14.93578597      17.62954570      -0.18328430       0.01156287       0.07118029       0.73948848       0.42291492      -0.62564147
H        7.38048178      14.57291847      17.49843561       0.17274764       0.10693839       0.01016412      -0.60576320       0.35678437      -0.55500942
H        6.42898181      14.99942251      16.02848504       0.15376448      -0.04169600       0.02184325      -0.08013870       0.05798545      -0.99585235
H        6.15173797      17.23200638      15.39634355       0.19480058      -0.07572859      -0.00647853      -0.14122543       0.02702701       0.14371264
H        5.79090422      19.64518381      16.65683199       0.27231390       0.24983102      -0.02964893      -0.21850905       0.31461018       0.18796259
H        7.59284843      16.91972600      19.27822839      -0.17427611      -0.11982043       0.32307115       0.81390935      -0.63465869       1.48556435
C        3.57149068      17.06353569      20.80060560      -0.48393935       0.99627116       0.70709073       2.34729385       0.23149091      -2.24074984
N        4.63490895      17.32800472      21.75441587      -0.44995846      -0.18475075       0.09707582       0.74690890      -1.32476103      -0.13281947
C        5.61830694      16.38424226      22.10493288      -0.62444432       0.24062057       0.93060861      -0.62476563       1.39079797       0.93287069
C        6.29646915      17.03488868      23.13082778      -0.27172294      -0.71263332       0.51941005       1.51764309      -2.40723443      -1.17380440
N        5.81280407      18.27243003      23.30600660      -0.45691960       1.78149561      -0.29133971       0.86680144      -0.08309674       1.44589710
C        4.81398452      18.41522826      22.52099161      -1.04245013      -0.01934877       0.71454559      -4.34621620       2.46277666      -1.82861626
H        2.67934093      16.84792908      21.29815159      -0.03718457       0.04252761       0.09458223      -1.65428782      -0.58443451       0.58038819
H        3.93098777      16.30010102      20.02282444      -0.00514589      -0.02575737      -0.06444854      -0.60248345       0.49562982       1.43137252
H        3.49713238      17.96077877      20.20026659       0.31687856      -0.12917526       0.25091543      -0.50372231       0.45348495      -0.12914547
H        5.62230307      15.37749298      21.68433289       0.01125341       0.11673917       0.06375750       0.27385670       0.28851774       0.16656846
H        7.20160252      16.68972092      23.57465453      -0.02577980      -0.08601193      -0.01641935       0.42141604      -0.12492079       0.59869462
H        4.06084509      19.25626780      22.64619211       0.10784853      -0.06941730       0.21522351       1.00611305      -1.17005610      -0.50505233
C       13.19228563      -0.39650863      13.62778129      -0.57402923      -0.31434229       0.02092670      -0.35224143      -3.48598313       1.01056683