640
Lattice="19.152215 0.0 0.0 0.0 19.152215 0.0 0.0 0.0 19.152215" Properties=species:S:1:pos:R:3:momenta:R:3:forces:R:3 energy=-80136.1640625 stress="-0.019662365317344666 0.0013262373395264149 -0.002397239441052079 0.0013262373395264149 -0.018195124343037605 -0.0010058718034997582 -0.002397239441052079 -0.0010058718034997582 -0.01727568730711937" pbc="T T T"
C       13.89233346       6.08627368      18.37075523       0.16410700      -0.72814565      -0.98101815      -1.74999356      -1.75700700      -1.21685410
C       14.66210949       4.77827931      18.26346437      -0.74489277      -0.11236288       0.42834528       0.43324602       0.36815488       0.70425862
O       15.47820709       4.47500881      19.15132840       0.10936000      -2.01659242       0.98016759      -0.43665770      -0.11198172      -0.49788618
O       14.38973986       3.99990549      17.19936713      -0.07619518       0.38380794       1.19645954      -0.13692033       0.91094208       0.26731205
H       14.99132149       3.20688136      17.27513489      -0.06665399       0.10122572      -0.34195059       0.56173533      -0.83763129       0.00147614
H       14.02365457       6.41897205      19.36825091       0.05911727      -0.00416903       0.04647910      -0.12301867       0.38691640       1.24649262
H       12.77453174       5.80324531      18.17162638      -0.10263237       0.23922938      -0.00661406       1.88707495       0.99643427       0.21585378
H       14.32905302       6.85856887      17.73520619      -0.17404196      -0.02583501      -0.18491968      -0.27993596      -0.01481432      -0.54861993
C       10.67095614      15.58807882      16.29133207       0.96015081       0.11647601      -0.60344170      -1.27842546       0.76076233      -0.06251545
C       12.11586478      15.49580526      16.56992141       0.20146831      -0.63729183      -0.29625208       0.07882774       1.91668940      -0.42466891
O       12.76483338      16.73755915      16.62551887      -0.02821653       1.52368619       1.49554768       1.17278397      -3.22593737       0.57499355
O       12.68729589      14.41926236      16.64642333      -1.34714643       0.60227657       0.10697642       0.94013679       0.09348840       0.45504874
H       15.39587389      12.81262475       1.24906763       0.22344954       0.30828284       0.27265820      -0.17924364      -0.03905082       0.67608249
H       10.09577529      14.75731027      16.71810859      -0.26061395       0.23211065       0.08023227       0.21132150      -0.00706409       0.04640497
H       10.48683884      15.60893856      15.20489841       0.02556539       0.36210503       0.17593524       0.05472174      -0.09703319       0.05446450
H       10.25299623      16.54948770      16.65107262      -0.01126127       0.14862563      -0.04828949       0.09206857      -0.39394090       0.05979435
C       -2.25477075       6.78512400       9.02321308       0.24822741       1.08407023       0.31622439       0.23314184       0.45398960       1.45712638
C       -1.53175682       6.50773467       7.76159057       0.45380066       0.05072221       0.13068695       0.47091722      -0.09860387      -1.05719805
O       -1.60757562       5.27051097       7.26389619      -0.20908773      -0.29819318      -0.22778471      -0.35853586      -0.63918972       0.32493114
O       -0.96124281       7.38549380       7.09544488       0.81821574       0.29336104      -1.08513027      -0.10831052      -0.11303353       0.44895524
H        3.09177870      17.60859502       5.41882713      -0.02533236       0.26050952       0.08430405       0.10634331       0.42760295      -0.09371966
H       -1.69695105       7.41977686       9.77306089       0.08552503      -0.12728399      -0.06207005      -0.22198793      -0.49848992      -1.00330782
H       -2.63007700       5.90643074       9.54606171      -0.41081042      -0.08753478       0.21737215       0.03265196      -0.33071259      -0.03168552
H       -3.12446969       7.33755765       8.71313861      -0.03943844      -0.24835262      -0.23181791      -0.83753884       0.64164990       0.13598090
C       11.02336422      14.08991337       0.88022722       0.27371989       0.14299941      -0.14388446       0.82946873       0.25036779       1.41895986
C        9.55041982      13.93086609       0.86110353      -0.28911836      -0.66236091      -0.59252394      -0.76518416      -0.19230875      -2.10108137
O        8.72928030      14.85609730       0.88686184      -0.76130880      -0.56128762       0.92940691      -0.05302382       0.64946502       0.89679521
O        9.17595666      12.71394947       0.51094423      -0.20725175       0.60767250      -0.92128088      -1.07675529      -0.79362202       0.10576588
H        7.97763365      12.65740112       0.41545145       0.35054561      -0.15880810       0.22022820       0.93494600      -0.38944536       0.35604391
H       11.27811842      14.73851767       1.75796272      -0.18175250       0.16707875      -0.11239417       0.19873118      -0.67876750      -0.46013141
H       11.37446468      -4.51662001       0.01561733      -0.03779935       0.09684400       0.14189834       0.03012406       0.26523030      -0.57375580
H       11.52481971      -6.05136131       0.87168287      -0.15474691      -0.05234463      -0.08731636      -0.05473165       0.53059322       0.38490921
C       12.99832373      18.35745584       6.48230567      -1.36817777      -0.17823331       1.21621170       1.71766973      -0.76558989       0.39673173
C       12.66996581      17.01367580       7.14089457      -0.53391396      -0.54959916       0.66254866      -0.33452228       0.10846543      -0.50357479
O       11.66560005      16.36802224       6.54450159       0.19071953      -0.25113142       0.39702830      -0.59885830      -0.41364694      -0.24327672
O       13.22319566      16.54740108       8.14935038      -0.00163941      -0.20399429       0.33253052      -0.13266635       0.43792772      -0.67304540
H       17.85701398      16.44904756      15.45237683      -0.12550131       0.26164175       0.11718387      -0.42825335       0.03399959      -0.24532244
H       12.79778810      18.40874250       5.42627551      -0.12838368      -0.15080353      -0.21986559      -0.58462185      -0.31103367      -0.50635213
H       14.10413498      18.52411322       6.52721818      -0.04867100       0.03071354      -0.03770136      -0.80368841       0.18501270       0.54972273
H       12.39693436      19.10166246       6.98170019      -0.29672329      -0.18712221      -0.07304683       0.02510262       0.70879292       0.33317381
C        7.60326008      17.51339051      11.85480170      -0.07720614       0.82214206      -0.59996236      -1.03140652       0.62889826      -1.75081754
C        8.87628733      17.08024109      12.48130926      -0.63149428       0.62110455       0.43324756       0.59436452       1.49171734       0.61951709
O        9.90486078      17.34218482      11.65828047       0.60086461      -0.07798133       0.03400806       1.12766147      -0.59938586      -0.27167523
O        8.99331039      16.72292993      13.64899975      -0.15833398       0.13174613       1.09963034       0.00984675      -0.93358094       0.15897369
H       10.88424283      16.99252823      11.96923550      -0.05468215       0.08341114      -0.33869575      -0.78033412       0.09133744       0.19321689
H        7.84254689      18.36419570      11.12739989       0.26628497      -0.28186760       0.36839170      -0.37439543      -1.17002463       0.68072897
H        6.80035393      17.91671827      12.53331745       0.22371226      -0.05373470       0.03208167       0.68103987      -0.89183491      -0.29934794
H        7.29017594      16.60815110      11.22967267      -0.03190078      -0.04009688      -0.04386539      -0.30041286       1.11096001       0.60497868
C       19.69631204      -4.88448303      -1.08513916       0.30972254       0.59471518      -1.34080415       0.17556956       0.36724621      -0.12068188
C       19.02076494      -3.71805800      -1.84051907       0.20970314      -0.21507578      -0.78126254      -1.90174460       0.47517264       3.11509275
O       18.60736038      -2.74422633      -1.06987261      -1.74178343      -0.12938811      -0.67911055       0.80476415      -0.32770297      -1.14333618
O       18.73091048      -3.79796640      -3.06331913       0.17219787       0.73511850       0.31507837       0.30790871      -0.15914939      -0.96109229
H       14.27826266       0.04269907       0.52431095       0.02591420      -0.23923175       0.16496683       0.90687710      -0.81322712       0.18173882
H       19.94217226      -4.68368884      -0.02372501      -0.13595569       0.08790276      -0.12965649      -0.08428535       0.39280069      -0.58806455
H       20.60161496      -5.04051377      -1.64403672      -0.09341127      -0.30944840       0.14493859       0.94802076      -0.48242712      -0.22398922
H       19.15375066      -5.83023223      -1.08458465       0.17960087      -0.01477279      -0.04108914      -0.44264275      -0.02091548      -0.37343615
C      -10.74264336      23.16708505       4.71865491       0.57963044      -0.99341038      -0.05391143       1.77552462      -1.37529874       0.66540402
C      -10.48213321      24.25966399       5.67532046       0.05215513      -0.43791839      -0.15424239      -1.59482396       2.01690435      -0.49253464
O       -9.84688750      24.18127518       6.69770195      -0.27757248      -0.17671464       0.39040392       1.35736012      -0.62194943       1.36206019
O        8.05007144      25.44711712       5.41211769      -0.79261922      -0.26289334      -0.96447526       0.60733771      -0.32949376       0.39430189
H        6.36601787      12.08710886      -4.17696290      -0.05048460      -0.01398755      -0.23409848       0.91497970       0.49553561      -0.71234357
H      -11.67798191      23.25452265       4.21803416       0.26798267      -0.20918718       0.36539056      -0.78458625      -0.00663399      -0.48003864
H      -10.67423870      22.24559583       5.34332117       0.26553230      -0.17200373      -0.05938617      -0.27754378       0.16419142      -0.61787486
H       -9.88087676      23.13736411       4.01754937      -0.18584440      -0.11954236       0.00493907      -0.45397472      -0.05060539      -0.09117843
C        2.61625262      -2.99352345      -4.13655283      -0.47350765      -0.16990236      -0.79840761       2.61665368       0.38742423       1.73530173
C        2.41601144      -2.17321448      -5.32162484      -0.70952019      -0.98528419       0.38940447      -0.39668083       1.95621395      -1.71109414
O        3.15035903      -1.11965406      -5.57917631      -1.01957307      -0.25716069      -0.18324384      -0.14509213      -0.64780819       0.43121436
O        1.46114855      16.66414640      -6.09485887       0.60384831      -0.29152413      -0.39640143      -0.20564677      -0.55211824      -0.67983913
H      -11.64645673      25.42542733       4.56059453      -0.37709056      -0.39314633      -0.24072555      -0.40415072       0.35120684      -0.38992608
H        1.69728199      -3.26844261      -3.66891252      -0.04211950       0.19995789       0.17661794      -0.87429547      -0.08730032       0.26533794
H        3.29265175      -2.46056107      -3.37390753      -0.02081082       0.18134153      -0.27658219      -0.83978641      -0.77667308      -0.95104152
H        3.11615889      -3.92091210      -4.44028895       0.05069807       0.04557689      -0.15332862      -0.08585066       0.14147839       0.24018742
C       -2.33779232       2.23353889      13.94129785       0.09056057      -1.14554042       0.78105334       1.41255403      -0.85094011      -3.85193443
C       16.26906893       3.55078150      13.47545435       0.30864588       0.27028623      -1.27212440      -0.61320549       0.19958234      -1.24308252
O       15.51006135       3.59050291      12.37916770      -0.83381812       0.26362647      -0.53804021      -0.19929880      -0.77377403      -0.67393559
O       -2.63244895       4.58904113      14.05972828       0.03571172       1.63202973      -1.08565455       0.82254803       1.44727957       1.60067105
H       24.33365936      -0.67818288       7.14781434       0.34614974      -0.24373207       0.20015299       0.90781111      -0.78516281       0.90974343
H       -1.26598390       2.39348592      14.13376642       0.00352614       0.13026835       0.03760525      -0.19228832      -0.18085943       0.31752056
H       -2.33873530       1.42412487      13.08014228      -0.09522767       0.21866928       0.36075816      -0.24472541       1.61039865       1.67642748
H       -2.87812417       1.91315177      14.77136966      -0.06448566       0.15769089      -0.24578664      -0.78574103      -0.70271945       1.83067393
C       25.47543993      23.43873922      16.29186396       0.11927698       0.89676869       0.35558012      -2.94083214      -0.67398000       0.41585577
C       25.69853016      22.69111991      14.99623010       0.65202593      -0.87875464      -0.80177477      -1.08646512       0.41556144       1.17604792
O       26.82752760      22.47562406      14.63752895       0.00517284      -0.23376426       1.39367236       2.98861051      -0.62895894      -1.02225590
O       24.64690202      22.30668425      14.30208036      -0.73917411      -0.44469417      -1.07197483       0.10358799      -0.46903336      -0.68405455
H       25.04572505       2.71081589      13.31059553      -0.20530959       0.00978535       0.17848971      -0.81224775       0.46625441       0.15256459
H       26.11097402      23.12538880      17.12642627      -0.06339081       0.04302633      -0.02545692      -0.08095581      -0.06857616      -0.37382916
H       24.37145146      23.27404788      16.57653971      -0.13908411      -0.24921252      -0.44194289       1.50092673       0.22588189      -0.08816255
H       25.55712214      24.50185300      16.13507607       0.09804245       0.17945647      -0.16429853       0.34543949       0.71597177      -0.15542758
C        0.25407992      20.57976389      11.02155225      -1.09373354      -1.18313808      -0.19707939      -1.88679624       0.01083803       0.63022518
C        1.19720113      20.34512128      12.17040290       0.41908901      -0.03339642      -0.16092737      -1.41639328       0.60590899      -1.77644265
O        0.98296774      20.81188426      -5.86081552      -0.93881397       0.80181939      -0.25320847       1.01335573      -0.41572580       0.83948916
O        2.11823323      19.51009420      -7.44368434      -1.03978535       0.99407404       0.88692944       1.49057114      -1.20160556       2.69931674
H        2.19563176      16.43322793      11.43934893       0.03082808      -0.17606882      -0.06736229       0.17748880       0.51730347       0.81934679
H        0.01698320      19.54511877      10.72988118      -0.16602736       0.14937294       0.06681170      -0.66983235       0.21135165      -0.29137230
H        0.70483217      21.00628215      10.14525642      -0.00584655       0.05607483      -0.02697412       0.48016483       0.65495211      -0.28781098
H       -0.68089955      21.15895225      11.29724139       0.05986888      -0.01210486       0.23177931       1.10445380      -0.66902369      -0.23691475
C        9.80854032      13.48843525       4.05875710      -0.16729490      -1.11306738      -0.06624559      -1.21566617      -0.16666093       0.89811885
C        9.72475063      12.91104161       5.45096951      -0.41299171       0.36226096      -0.59422801      -0.85610121       1.09381139       1.67041385
O        8.91403787      13.49946630       6.24630898      -0.42128549       0.39120889      -0.48256037       0.72141814      -1.00503588      -0.61623633
O       10.52268391      11.92366052       5.81326275      -0.68661850      -0.29293225      -0.64018768      -0.28957713       0.21102881      -0.47060305
H        7.97115206      14.16225972       7.60732011       0.17544116      -0.21976751      -0.29727232      -1.68808711      -0.47699231       0.55407071
H       10.62348795      13.03164496       3.54950911       0.21520805      -0.11292021       0.18443941       0.64258176      -0.38636008      -0.91313529
H        9.97411886      14.56732576       4.23415698      -0.08232442      -0.14710416       0.00230740      -0.11031652      -0.17366949      -0.43636471
H        8.79376529      13.31419534       3.57215376      -0.01547209      -0.32230066      -0.07558263       1.33061314       0.25800979       0.28439689
C        6.44838276       2.25030562      20.96608958       0.71060140       1.37835101      -0.58833085       0.69819009      -1.83703613       0.22527760
C        5.29711458       2.98879897      20.32600296       0.72626039       0.45475368       0.78647187       0.05740282      -0.84859151      -1.58611786
O        5.19356604      22.19444343      19.07400968       0.24676809      -0.44021011       0.00907088      -0.14006111       0.21507987       1.84112096
O        4.31613924       3.45941005      21.11789680      -0.04279237       0.14321383       0.41433200      -0.07115418       0.57696235      -0.57375717
H       23.67400447       3.58015574      22.10017950      -0.29188480      -0.14627185       0.30224287       0.27491629      -0.59890884       0.40767917
H        7.23124083      22.05484622      21.43180620       0.14314317      -0.19263825      -0.11973262      -0.46543324      -0.23451200      -0.50183541
H        6.93269280       1.54242141      20.17169898       0.21794127      -0.03035170      -0.13566355      -0.71477449       1.33445036       1.33088100
H        6.07453778       1.57899416      21.80686412       0.09353616      -0.01182450      -0.06001399       0.32370764       0.71426034      -0.79273283
C       13.43883286       5.19836912       6.41722859      -0.05200315      -0.02072284      -0.66646244       0.31781429      -0.28053439      -0.63149357
C       13.30289176       6.29413597       7.43953677       0.11290419       0.02963759       0.45086451      -0.19747779      -0.75979626       0.58459401
O       13.33879204       7.50637163      26.06482555       0.64411026       0.22793813       0.67486723       0.28628001       0.95274985      -0.77185565
O       13.17019237       6.05474484       8.64739823       1.60407171      -0.46809051       0.81096629       0.02343456       0.14924216      -0.27917778
H       13.43128470       8.32675232       7.55987230      -0.20344378       0.29531636      -0.18581529      -0.41798186      -0.35454136       0.68613034
H       14.30390012       4.56743375       6.61915857      -0.08656421       0.03000476       0.14509823       0.58222103       0.16451475       0.25772882
H       13.52366939       5.55282056      24.53268942      -0.29058086      -0.04969551      -0.31564340      -0.04215889       0.15518349       0.21615089
H       12.65180553       4.44927492       6.44268874      -0.36275333      -0.21435283      -0.28187735      -0.76640481       0.18402408       0.24436535
C        9.06745361      22.58449976      -0.66248774       0.50707045       0.02032018      -0.30612960       0.67739224       0.51545298      -2.68236947
C       10.29822353      22.84096444       0.14903539      -0.10199858      -0.35451184      -0.67428863       0.11259234       0.11721007       1.44442797
O       11.42873159      23.13837747      -0.26240816       1.02509125      -0.03939218      -0.80832316      -0.71381909      -0.35191867       0.23754144
O        9.97415966      22.75926942       1.48565487      -0.14904160       0.60625718       0.44249216       0.55736971      -0.40054056      -0.49832946
H        0.14828685      17.76516214      -1.63647898       0.17562107      -0.18644971       0.29876176      -0.00559014      -0.09563178       0.11243775
H        9.01188337      21.55527993      -1.10374633      -0.13627319      -0.13276636       0.00632694       0.49748105       0.52041161       0.31188732
H        9.09697488      23.31370570      -1.58533277       0.19750440      -0.26963729      -0.03612575      -0.50922167      -1.20762444       1.86844540
H        8.21346902      22.63004271      -0.00863207      -0.03262249       0.05790725      -0.12152242      -0.67216682       0.53975064      -0.00106536
C        5.49920652      10.81484806      10.43098728      -0.52866357      -0.44350396      -0.46582493       0.44185060       0.76824963      -0.27966839
N        4.10253911      11.08645876      10.18847819       0.26112792       0.36737595      -0.04017983      -0.08640939       0.36891925       0.65493131
C        3.13085272      11.07850576      11.15205512       0.81771132      -1.17399255       0.47469368       1.25909650       0.27733126       1.76988328
C        1.96866482      10.79927967      10.54055934      -0.72360967       1.02547445      -0.55026441      -0.59199721       0.08692811      -1.54642463
N        2.14145320      10.82786123       9.15841434       0.26849452       1.15992755      -0.37643449       0.28365821       0.60811877       0.17132834
C        3.44949593      11.04231032       9.01725664      -1.20093908      -0.74166436       0.38506861      -0.47528341      -0.65666866      -1.44090521
H        5.70918141      10.70163095      11.48188798      -0.11582493       0.27732683      -0.03597364      -0.25425622       0.18169978       0.75121945
H        6.04691721      11.68908810      10.06668820       0.12431347      -0.02023125       0.11410821       0.50868785      -0.26886415      -0.09985694
H        5.80665239       9.87045644      10.00731615       0.03304527       0.29481842       0.16580492       0.08151577      -0.26991576      -0.60758150
H        3.41931844      11.42996813      12.13769764       0.08811129       0.10367908      -0.02397837      -0.35651177      -0.34206307       0.01010555
H        1.08522210      10.35298379      10.88184074      -0.48303656       0.14212799      -0.02467426      -1.26478875      -0.16223967       0.96037102
H        3.96127127      11.06551673       8.07384113      -0.10678833      -0.15052374      -0.56871528       0.16799879       0.08448035      -0.28424627
C        3.36148629      20.36287392      15.65298560       0.35987726      -0.17044776      -0.98589484       0.41263762       0.98881406      -1.67192209
N        2.48016409      19.86193538      16.61729631      -0.82931536      -0.05940774      -0.38371087      -1.20453620      -3.32890081       3.53809500
C        2.88418850      19.37585519      17.89993163      -1.11533544      -0.21271380      -1.27884183      -0.06876358       1.51556993       0.68580204
C        1.87802334      18.61209054      18.42234507      -0.63883745      -0.57459478      -0.79147591      -0.09565476      -1.93514848       0.81241822
N        0.94188821      18.49002846      17.42057280      -0.07675217       0.24883666      -0.32540777      -0.81288624      -0.14302146      -0.44550574
C        1.29482845      19.18150895      16.33127520      -0.07490748      -0.08158584       0.85511893       1.32304418       1.16014290      -0.31188142
H        2.64559428       1.63131501      14.93865877      -0.04275512      -0.07780210       0.15757571       0.88285673       0.26017213      -0.69574994
H        3.93656945       0.39432900      15.22446825      -0.30046652       0.27400377       0.10620896      -0.07682967      -0.28723806      -0.46055841
H        4.10546135      21.08782239      15.99559851       0.22696424      -0.02662971       0.24400549      -0.38170782       0.30129927       0.35609555
H        3.72988614      19.75810825      18.48476030      -0.08150925      -0.19197975       0.04097725      -0.05929673       0.02843589      -0.68040615
H        1.77200961      17.87569597      19.33770389      -0.17214730      -0.10849942       0.23934791       0.41943166       1.96362305      -1.85089803
H        0.94183153      19.13908373      15.28471671       0.14074388      -0.10322100      -0.26568172      -0.26903915      -0.08820120       0.78082681
C       11.82824822      21.84546446      11.91759510      -0.24088310      -0.62425845       0.16387030      -0.01389027       0.17598851      -0.98605824
N       11.23370041      21.58414720      10.55426313      -0.07449681       0.31935643      -1.15656776       2.02325892       1.77179646       1.67218113
C       11.62831123      22.26334115       9.33981553       0.46704966       0.52963657       0.14387663      -1.70505428      -2.10693717       1.56664717
C       11.05190724      21.41636399       8.41607453      -0.34331957      -0.56101072       0.40476384       2.00971079       1.92956042      -2.89046788
N       10.41941935      20.34234680       8.91904196       0.19833217      -0.02330402       0.48635155      -0.33334541      -0.84007102       0.63004136
C       10.56154084      20.45264400      10.25530958       0.61874968      -0.62572181       0.68835154       0.01310450       0.69561899      -1.97371173
H       11.67361849      22.85901744      12.26240874      -0.25113781      -0.23286004      -0.05853181      -0.17693812       0.60317874      -0.33579054
H       12.90251186      21.65771018      11.97445200       0.39869572      -0.02859043       0.36554065       0.17946255      -0.05734207      -0.46286094
H       11.37907389      21.23353563      12.66263291      -0.13938171       0.05031624      -0.17331007      -0.72864336      -0.94966686       0.49933863
H       12.21051691      23.16492617       9.21413428      -0.01483525      -0.00455401      -0.14701606      -0.00470722       0.06814140       0.44719064
H       11.35729493      21.63639527       7.33206656       0.15322510       0.17590764       0.01018400      -1.20384336      -0.93448824       1.35789239
H       10.24149576      19.72929660      10.96293860       0.01856615       0.18045979      -0.11381282      -0.19969901      -0.38432854       0.50598884
C        6.93514052      15.86376335      16.45390216      -0.07760716      -0.11346791       0.04504089      -0.09263381      -2.57486415      -2.12537766
N        7.02439730      17.00233936      17.26310169      -0.07257657      -0.84133675       0.70960639       0.70043457       0.40911043       2.05202007
C        6.49713758      18.20484187      16.92131893       0.61700839       0.59238172      -0.36690013       1.64186358       1.85586548       1.09297585
C        7.11179239      19.18983731      17.69672394       0.03240986      -0.33762456      -0.35308087      -0.66540253      -2.03443694       0.42849791
N        7.92303372      18.52636682      18.63453605       0.16468488      -0.14411473       1.37558082      -0.51545501       1.57543600      -0.54432607
C        7.84126062      17.23415937      18.35877487       0.02389182       0.46421455      -0.93328071      -0.23338515       1.19577682      -0.41570193
H        7.91733878      15.46114923      16.04140820      -0.04644564      -0.06944663      -0.09145974      -0.99305767       0.54130453       0.85794699
H        6.35255323      16.08636901      15.54859778       0.16265303       0.24793400       0.10447225       0.18473047       0.45830029      -0.03637816
H        6.31473708      15.05250190      16.87114488       0.26722732      -0.25482296       0.12591373       0.54969394      -0.02015600       0.41567588
H        6.11819959      18.35088489      15.97792606      -0.06193659       0.21025217       0.38438515      -1.34838605       0.14635488      -2.16250181
H        6.89226600      20.24434209      17.63031233       0.24641128       0.13386457      -0.09511495       0.30000037       0.15696824       0.31398183
H        8.37149885      16.59435652      19.01404296      -0.09746543       0.43068730      -0.11375298       0.11920938      -1.52832103       0.01389468
C        6.59564266      14.74996656      22.70255487       0.32363544       0.05562180      -0.09254850      -0.22514389       0.29217759       2.67316604
N        5.74304758      15.91134007      23.03232540      -0.65534420       0.92654955       0.43465978      -0.72684950      -0.53238893      -1.13060975
C        5.90428783      17.20022697      22.58319814      -0.24407900      -0.49093655       0.80873640       0.00409865       0.24137008       0.49935535
C        4.81392635      17.94229001      23.05916326      -0.29353109      -0.10903974      -0.58870402       1.98857856      -1.59270644      -0.11530031
N        3.99903462      17.06743045      23.75398644       0.08629059      -0.15927028      -0.21875818      -0.41307122      -0.92648876       0.09550585
C        4.53077729      15.78723174      23.63925936       0.04980152       1.01691693      -0.10326791       0.48848885       3.03839970       0.16833787
H        6.02021253      13.90641568      23.16766594      -0.25480103       0.41096388       0.17183998       0.78776592       0.18517061      -0.76868987
H        7.53599583      14.89999677      23.28885447       0.26721640       0.11591240      -0.03854058      -0.51299739      -0.29033986      -0.46196812
H        6.82245594      14.67018214      21.65743913       0.20262920       0.23627424      -0.22226009      -0.11323766      -0.10287446      -0.70798784
H        6.84604220      17.44958649      22.09638961      -0.05007917      -0.06540925      -0.01489357      -0.35536778       0.22741601      -0.04475525
H        4.90170540      19.01178360      23.14174076       0.16785870       0.15902383       0.17113447      -0.89527124       0.33205044       0.24200261
H        4.07963947      14.82978933      23.80651824      -0.11962554      -0.03526793      -0.07112278      -0.28883743      -0.04661512       0.20281202
C       14.43019204       0.01570364      13.73627799       0.42029443      -0.66818060       0.13909624      -1.55760610      -0.48472399       0.85377115