640
Lattice="19.152215 0.0 0.0 0.0 19.152215 0.0 0.0 0.0 19.152215" Properties=species:S:1:pos:R:3:momenta:R:3:forces:R:3 energy=-80136.140625 stress="-0.0174002293497324 -4.3796335376100615e-05 5.65097616345156e-05 -4.3796335376100615e-05 -0.019254261627793312 -0.00024279221543110907 5.65097616345156e-05 -0.00024279221543110907 -0.016902463510632515" pbc="T T T"
C       14.52208418       4.15817425      20.40025676       0.59280889      -0.57283927       0.41424801      -0.34994918      -0.68570220       0.44030130
C       15.03818013       4.23100212      18.96945800       0.00264354      -0.87545280       0.30283654      -0.36193687       1.49952030      -0.17026436
O       15.36238210       3.13134422      18.35163724      -0.17313599      -1.12320652      -0.64257104       0.65745723      -0.01379663      -0.02129418
O       15.02048681       5.38798012      18.45058412       0.24599809      -0.27317537       1.01489618       0.32313147      -1.03579998       0.32823443
H       15.52859098       2.73404519      16.74163010      -0.09821536      -0.15664886       0.27906227       0.02067062       0.55797219       0.77164477
H       15.12957538       3.75056501      21.26083395       0.09142315      -0.23515616      -0.03111704      -0.06832136       0.38297743      -1.11379480
H       13.62877279       3.52052725      20.35775296       0.06810919      -0.09918283       0.02858777      -0.05968907      -0.17736749       0.09138469
H       14.14008545       5.14503601      20.61352561      -0.03130902       0.16493357       0.20449351       0.05353866       0.55566114       0.49619770
C       10.50329967      13.98911078      15.27726353       0.82461181      -0.37880662       0.83256396       0.33496177      -0.25123394      -0.09818750
C       11.95906725      13.64815502      15.43569687      -0.53472206       0.51549109       0.22011900       0.40745363      -1.13680756       1.62595010
O       12.73748616      14.52762624      16.06804476       0.98464658       0.26396513      -0.25548958       0.16079599       1.53892517      -0.12531576
O       12.45797904      12.53688363      15.16617769       0.84210436      -0.12855592      -0.08165203      -0.74250972       0.72241390      -0.29863045
H       13.63631398      12.68044760       2.52569428       0.00329512      -0.02409629       0.06884766      -0.46260715      -0.40643558       0.79456091
H       10.49267394      14.36968324      14.26392458       0.09677440       0.17522215      -0.14718332      -0.75654405      -0.12649539      -0.83939898
H       10.13109802      14.81816608      15.86795475       0.04739152      -0.07621832       0.03737289       0.26635227       0.22281154       0.54396927
H        9.88675137      13.09877452      15.47974648       0.05613803      -0.22619660      -0.14265943       0.14000389       0.18850656      -0.51069152
C       -1.27279851       6.36641172       7.91567007       0.27044156      -0.64681255       0.25350328       0.31820977       0.46215087       0.00665653
C       -1.04468159       6.63590769       6.41884330       0.05672086      -0.29000999      -0.67324773      -0.47922245      -0.07156779      -0.34070104
O       -1.58868084       5.69145313       5.58982217       0.90682332       0.88025954      -0.30459896       0.98382044       0.99270493       0.59412539
O       -0.49579613       7.67661468       5.96891338       0.23314153       0.02850535       0.64126269      -0.66644341      -1.45133340       0.40693700
H        4.44817185      17.67583559       5.99360107      -0.03181199       0.33921420      -0.29441532       0.68874812       0.40419099      -0.30460596
H       -2.10323542       5.65126111       8.06347907       0.23173718      -0.13684389       0.20448185       0.28997561       0.45332989      -0.11375265
H       -1.52912971       7.34263221       8.39029731      -0.28855501       0.09271579       0.16386524       0.07571068      -0.50459689      -0.19787194
H       -0.39078277       5.96832459       8.49635188       0.15391321       0.06736256       0.18352774      -0.43034723       0.38613108      -0.85318738
C       10.48697578      12.78772330      -0.30694891      -0.36839679       1.27141101       0.06998130       0.16943932      -1.04995620       1.63609588
C        9.08063717      12.60177638       0.22799006      -1.04241214       0.76038604       0.11487127      -1.51594627       0.01027638       1.02328205
O        8.82915584      12.15432086       1.37112582      -0.73524818       1.02373049       0.57764952       0.34648788       0.38988143      -1.19894576
O        8.10671949      12.95060743      -0.65267852       0.11123096       0.33053577      -0.42020854      -0.61043823      -0.30162033       0.47585475
H        7.03697006      12.72733818      -0.32663636       0.13847156       0.02708780      -0.06444290       1.18239355       0.24712580      -0.36989164
H       10.64424623      13.72953873      -0.76734383      -0.06233380      -0.00242542      -0.09813970      -0.15382433       0.83628750      -1.16592836
H       10.69997084      -7.25069553      -0.92581264      -0.19671944       0.09950638       0.10192424       0.28443134       0.45127475      -0.25823706
H       11.21130894      -6.35142985       0.54133360      -0.29099859       0.12399713       0.32250862      -0.46817780      -0.44861567      -0.23727921
C       11.45272116      15.77624998       6.85803898      -0.22653256       0.82691371      -1.67231654       1.61169636       0.69611514      -0.97614634
C       12.93952558      16.32388156       6.72918167      -0.01442537       0.35020800      -0.17867469      -1.50712252      -1.11481524      -0.39691639
O       13.23605569      16.94496305       5.56808730       0.67259286       0.86249971      -1.41040668       1.56437647      -0.01327902       1.43130720
O       13.77383210      16.11037505       7.62760544      -0.78474169       0.24925947      -0.32690634      -0.41845894       0.68542308      -0.96100342
H       18.60434809      15.57168325      16.60522428      -0.18978494       0.02392822       0.00051118       0.20629936      -0.02243006       0.17443541
H       10.87602095      15.89103131       5.94175726      -0.14115401       0.13646497       0.27374485       0.25825375      -0.48408073      -0.37904182
H       10.91050175      16.38485695       7.52553814      -0.03785316       0.31478796      -0.10181550      -0.53790414       1.15806699       1.47869122
H       11.43136568      14.79283491       7.29135811       0.13919478      -0.14761024      -0.09921193       0.14715016      -0.75065607      -0.03564873
C        8.68274247      16.35241873      11.39506263      -0.71089038      -0.31939197      -0.46899432      -0.04738098      -0.26340002      -1.28291154
C       10.14789940      16.00673892      11.58529618      -0.34584621       0.00388405      -0.95934347      -1.69382894       0.78790170      -1.93663406
O       10.68885595      15.49110748      10.45893255      -1.16556086       0.46676593      -0.06769078       0.85605067      -0.34331119       1.53998685
O       10.64587820      16.31234792      12.66226261       0.58797279      -0.80071628      -0.54908140       1.43857193      -0.60231519       0.52836853
H       11.74010890      15.09475515      10.70277182       0.03081760      -0.10716334      -0.18979878      -0.47868931       0.70304990       0.08500612
H        8.19385554      15.67112323      10.67459407      -0.18407410       0.02276829       0.11741843      -0.07020368      -0.16824399       0.76987034
H        8.50109948      17.30949865      10.90992840      -0.33859749      -0.07093350       0.01670917       0.56942904       0.53796077      -0.30709505
H        8.21842271      16.49057936      12.34671346       0.16986244       0.27968540       0.35371910      -0.60302627      -0.52705204       0.86111093
C       19.82621718      -5.17510991       0.10170940      -0.98232681      -0.50344078      -0.77508989       0.18293773       1.43301511       1.87851465
C       18.84086607      -4.36565866      -0.70487513      -0.38377848       0.29760862       0.32902755       2.85275555      -1.09924138      -1.64002609
O       17.76964228      -4.01758636      -0.29668451      -0.59444743      -1.01776991       0.01044743      -2.37079597       1.03480899       0.75813335
O       19.32697316      -4.13411921      -1.96462915      -0.32962207      -0.49162801      -0.13385894      -0.90976012       0.36652803       0.81043547
H       15.25421096       1.92198867      -0.03055718      -0.09023642      -0.05986762      -0.03951170      -0.25942925       0.59943378      -0.20080902
H       20.83623587      -4.77824712      -0.07652054      -0.05540287       0.15437012       0.09071437       0.02895131      -0.29630357      -0.08503284
H       19.81359074      -6.23734884      -0.06825239       0.08946578       0.16185203       0.15358877      -0.11476709      -0.67711180      -0.39163768
H       19.60078360      -5.00274224       1.19747266       0.06893286       0.27689626       0.02913145       0.21445113      -0.22993088      -0.98159397
C      -11.62469303      22.48629981       5.90495380      -0.18420472      -1.21917550       0.15547257       1.47510648      -0.60499364       2.10329962
C      -10.48243078      23.23902201       6.65831818      -0.36683480      -0.59286232      -0.87173215      -1.32036102       0.28597212       0.66481185
O       -9.83526290      22.65139036       7.55211962       0.06151671      -0.02215440      -0.12078693      -0.19959766       0.92735672      -1.06614947
O        8.76360276      24.59700373       6.47846634      -0.19017245       1.84337169      -0.09430608       0.14906877      -0.66478574      -0.69667375
H        6.88761168      11.72625137      -5.59016578      -0.05945957      -0.34590830      -0.30329271      -0.67872620       0.07902524      -0.02314293
H      -12.52132651      23.06601602       5.89001198      -0.14017310      -0.17502112      -0.01575043      -0.91048068       0.57356513       0.20059682
H      -11.76930378      21.51757641       6.49000588      -0.01296126       0.24539842      -0.04079481       0.10557455       1.12491894      -1.18267369
H      -11.34986378      22.37572558       4.88000453       0.15883208       0.36589492       0.02320535       0.39214540      -0.58773530      -1.02730632
C        3.71733526      -2.21000858      -3.05720513       0.11769436      -0.51699505       0.51135170      -1.08773828       1.07609391      -1.96515250
C        3.48055311      -1.25319641      -4.28390363       0.69524478       1.37255597      -0.11917479      -0.55311131      -0.26508534       1.07495451
O        2.28369784      -0.74591775      -4.41128149      -0.42371699      -0.68190147      -0.21162603      -1.26423275      -0.51217711       1.27005315
O        4.33521026      18.16701466      -5.12430365       0.42842731       0.73860200      -0.20100739       1.78123391      -0.23140936      -0.47169042
H      -10.74807060      25.03115106       5.54882017      -0.02607512       0.00874718      -0.07705985       0.39336360      -0.87595642       0.70390368
H        2.81727978      -2.80388958      -2.90746695       0.03936616       0.18993206       0.23126115      -0.05132490      -0.34930032      -0.08351856
H        3.91445809      -1.70018060      -2.14276629       0.17755807      -0.16863800       0.14531783       0.14192377       0.99580717       0.85589278
H        4.58827486      -2.75801499      -3.31784067      -0.19061044      -0.09754617       0.20695844       0.79952061      -1.01942217      -0.17821181
C       -5.45265576       5.59062051      11.54621159      -0.38045318       1.24747961       1.43432424       1.32805610       0.44577402       0.15001428
C       13.92573363       5.55949020      10.06652910      -0.82207307       0.65175921       0.94472215      -0.26034868       0.49118686       0.03378296
O       12.75182675       5.82966538       9.45345285       0.25615011      -0.05852293      -0.33436828       0.54777050      -0.32865229       0.25535011
O       -4.16633112       5.35371793       9.44434434      -0.10811673       0.02690449       0.10382086      -0.99405217       0.15024768       1.06745052
H       24.92061582       0.31146908       7.53136167      -0.03791581       0.20159319       0.08824960       0.95116019      -0.06792808       0.07316235
H       -6.45136503       5.86045118      11.86132123       0.02296377       0.30960480       0.08706652      -0.47572213      -0.40780550      -0.10319410
H       -4.78160873       6.29329505      12.05096122      -0.06041099       0.10991310       0.01198326       0.31270880       0.44165939      -0.32688746
H       -5.08241671       4.65682095      11.93751025      -0.06529364       0.20383898       0.04954635      -0.33116865      -0.82327938       0.43953753
C       24.11438948      23.83010605      17.56859673       0.09600538      -0.88448505      -0.05469665      -0.41530338      -0.64469659      -0.55826277
C       23.84903703      23.23124538      16.16818485      -0.06175038      -0.76293086       0.05828346      -0.06973544       0.62258017      -2.32579851
O       23.30570576      23.83172529      15.18658030      -0.11607333       0.27809639       0.23013309       0.46046451      -0.30033958       2.09045506
O       24.31715249      22.00454801      15.98568364      -0.37465932      -0.11984068       0.05550078      -0.04852304      -0.68787259      -0.13238329
H       24.37300500       2.51602630      14.80315369       0.20181776       0.13519584       0.03433431       0.69525063       0.66287321       0.45568925
H       25.19724959      24.00937925      17.74013426       0.31026210       0.13427290       0.16806896      -0.43906999      -0.22381692      -0.11869831
H       23.72021119      23.07563396      18.27764634       0.13530858      -0.19836611      -0.24427656       0.44250584       0.32391295       0.10833537
H       23.56181897      24.76125695      17.70801067       0.29120995       0.07624791      -0.12325516      -0.02581879       0.14916274      -0.13655531
C        0.64206870      20.86036679      11.13183967       0.00647149      -0.22899334      -0.15052296      -0.17363769      -0.07512999      -0.89136714
C        0.75488165      20.64439312      12.58628598      -1.30924702       0.85211676      -0.35692193       0.51973659      -1.80460596       0.52166116
O       -0.29846119      20.81431063      -5.83693123      -0.99513250      -0.31844981      -0.48242313       0.92919827      -0.03988166      -0.19742918
O        1.89979277      20.15946342      -6.15499239       0.92991530       0.30833528       0.45343438      -0.98571497       0.73662031      -0.18104477
H        4.01180659      18.03522751      12.49048712       0.01946330      -0.21922092       0.09647325       0.13404375      -1.08945489      -1.15879953
H        1.38921600      21.53522366      10.79167905      -0.01360347       0.07922668      -0.19111807       0.99384272       0.79501873      -0.31159711
H       -0.29552247      21.26335805      10.83044417      -0.05633734       0.07287638      -0.11132335      -1.12545776       0.66297489       0.13453035
H        0.70566761      20.00122785      10.45743954      -0.30799499      -0.19406089      -0.22299072       0.30670959      -0.50057703       0.54938924
C       10.33699856      11.88715163       4.11416686      -0.53669902       0.14664549       0.34880430       0.13939199       1.43265522      -0.10167974
C       10.35048645      11.23344896       5.44434849       0.07119312       0.35250814       1.15760377      -0.65703106       0.05957985       1.54277170
O       10.58687505      11.91285808       6.50694272      -0.31535308       0.49516422      -1.17531206      -0.34991241      -0.71362549      -0.97475171
O        9.99432343       9.96368533       5.44558308      -0.43417737       1.08953420       0.39055959       0.61030018       0.96492374      -1.85216117
H        9.44440432      12.57323577       7.53995954       0.01282995       0.21577575       0.06892379      -0.17422429       0.19944656       0.43102342
H       10.06235841      11.28007471       3.29584743      -0.30339452      -0.10768236      -0.32455460      -0.04868232      -1.08796120      -0.82878339
H       11.22092793      12.47684080       3.88617143       0.25672666       0.12647176       0.17522889       0.76876479      -0.47118962       0.03580910
H        9.62417918      12.70611847       4.03256336       0.19973708       0.09968747      -0.02296318      -0.75662136       0.19582060       0.59166306
C        3.86794828       0.97577993      22.32618260       0.91949232      -0.44590295      -0.94007500       0.09771693      -1.77560639      -0.77233207
C        5.05757275       1.86985655      21.83701070       0.35233224       0.28460760      -0.82273797      -1.44759297      -0.34137881       0.97490829
O        5.63015351      20.82107129      20.76619027      -0.22447768       1.23651905      -1.41681366       0.05008459       0.19782442       0.44743025
O        5.38934081       2.88039783      22.68731278      -0.30263137      -0.71573123      -0.71834489       1.40144157      -0.65513575      -1.84204698
H       23.83552540       3.17944212      23.32940591       0.15831094      -0.08336928      -0.08580649      -1.05137610       0.30500177       0.62055075
H        4.25397476      19.14310517      22.72948457       0.03957082      -0.08966949      -0.21093709       0.19273077       0.82467657      -0.39564034
H        3.25186055       0.60812771      21.44492551      -0.10889036      -0.02384721      -0.34307724       0.60013473       0.77038169       0.74804014
H        3.19664978       1.28277510      23.14265947      -0.35925025      -0.22718868       0.26860416       0.26065576       0.78748012      -0.41890323
C       13.94177382       4.64635734       4.90376264      -0.66716127      -0.37122482       0.36505673      -0.42562720       1.65069008      -0.93342274
C       13.49968345       5.71806132       5.95925901      -0.12004091       0.50614682       0.38177229      -2.44294739      -0.90502471       1.32852483
O       14.20761169       6.83962216      25.17784925       0.56267380      -1.35308325       0.82643519       0.64288300      -0.98950136      -0.51458895
O       12.47305340       5.54466981       6.72852844       0.63599140      -0.93085248      -0.86881986       2.49338293      -0.07640940      -1.53788686
H       14.01407683       7.37093661       6.90724350       0.01995810      -0.02892980      -0.10767271      -0.56267840       0.69834483      -0.55979490
H       13.44975999       3.65886380       4.95599104      -0.19606206      -0.38976871      -0.12410343      -0.06399107       0.72901946       0.45412257
H       15.02550025       4.52945596      24.09283950       0.01053783       0.13499352      -0.13128276       0.27716142      -0.01016462       0.13536760
H       13.72410884       5.08866597       3.85531711       0.10862935      -0.09718630      -0.03933721       0.33905697      -0.62410903       1.48485613
C        8.25171789      22.70813406       0.11136345       1.04976386       0.49356809       1.06261253       0.67125177       0.83447522       0.35171199
C        9.45051431      22.45065465       1.06595176      -0.35612626      -0.23252763       0.59629473      -1.51534867      -0.71874207       0.43540359
O       10.55460889      22.25295155       0.56659398       0.87844651       0.63022537      -1.67621188       0.64779580       0.04928617       0.46548057
O        9.14602926      22.38449339       2.41658922      -0.75653870       0.32723570      -0.63250953       0.81414384       0.09214249      -1.77991319
H        0.11887028      20.78927354      -4.50687727       0.08845649       0.51026777      -0.07831655      -0.05506739       0.17302018      -0.66224509
H        7.55299444      21.85930907       0.01582879       0.01311617      -0.17279773      -0.07992407      -0.00874099       0.28774202       0.63924861
H        8.69179201      22.87514474      -0.89328271       0.12451622       0.22084094      -0.00863859      -0.18510710       0.05339268       0.41160223
H        7.76304845      23.66074943       0.44742495      -0.16794158      -0.07928120      -0.09591289      -0.09512800      -0.82951546      -0.30861998
C        5.85922531      11.04404478      10.27301267      -0.33186540      -0.43155129       1.72246775       0.77556342      -0.36040354       1.13075066
N        4.65053800      11.72654550       9.91613180       1.20003296       0.32481797      -0.28128173      -0.01800448       0.34767550      -0.16893542
C        3.78392767      12.36718844      10.80543428       0.03640301       0.99590573      -0.27335415       0.25598842      -0.90162528       0.06326711
C        2.56447993      12.36936140      10.08350501      -0.18683474       0.05354226       0.12313848       1.51932800       1.36384225       3.14007807
N        2.74972781      11.93178354       8.86542914      -0.05550873      -0.23742193      -1.04916499      -0.44587463      -1.09017539      -3.40926409
C        4.02884466      11.54255473       8.72030675       0.22091125      -0.17807329      -0.80292681      -0.68848342       0.75363696      -0.30184519
H        6.71772843      11.69509061      10.07824065       0.12411443      -0.28694936      -0.00282194       0.12123151      -0.13912019       0.14362778
H        5.98396434      10.09373558       9.72343109      -0.34859080       0.31898674       0.12009630      -0.29672715       0.31585759       0.17725633
H        5.78895604      10.82965354      11.36686236      -0.00818686       0.11344487      -0.00602721       0.34422722       0.00248185      -0.73536539
H        4.17772486      12.63606234      11.82994044       0.17677427      -0.01627445      -0.09433124      -0.85573828      -0.25186950      -1.33453023
H        1.64525548      12.74329387      10.47577306       0.21998808      -0.33022848      -0.08153991      -0.60984647       0.07926676      -0.03391474
H        4.54173056      11.42339126       7.73213887      -0.14728971       0.07872445      -0.12359892      -0.38313502      -0.05059628       1.12391484
C        2.71716563      20.69702520      18.53244916       0.27474573       0.12049790       0.61402206      -2.01815557      -1.86052179      -1.36403525
N        1.50250884      20.63563861      17.59298293       1.23489109      -0.80082558      -0.48775139       3.57752037       0.91099346       0.30837822
C        0.38981346      19.91319839      17.81358883      -0.28649972       0.64942520       0.43638643      -0.53730392       1.25344491      -0.65873891
C       -0.35293593      20.17017815      16.70427901       0.24096517      -0.27956875      -0.16236459      -1.32331836      -1.52231944      -1.52379966
N        0.40080094      20.81036627      15.71188635       0.09860121      -0.73651953       0.17212861      -0.41327715      -0.36734629       2.61020660
C        1.54783629      21.12275159      16.31558533       0.38931668       0.16987294       0.51543853       1.10033202      -0.46146351       1.10856545
H        2.67231890       2.45038617      19.07254074      -0.15815011      -0.06294638       0.17807552      -0.02723487       0.96211195       0.85362589
H        3.59376563       1.46467210      17.92560979       0.05138550       0.13326645      -0.01522463       0.80176473       0.05896404      -0.44100571
H        2.60004059      19.78263148      19.12970373       0.00092585      -0.11686704       0.26194716       0.29280394       0.35651612       0.29728478
H        0.28007700      19.33142149      18.69403082       0.05077145       0.02468989       0.13639974      -0.31433448      -0.63510215       0.43950516
H       -1.30135814      19.71915861      16.45099449       0.12107500       0.15575562       0.00133781      -0.11836743       0.17489240      -0.18586181
H        2.52890585      21.44432981      15.95831540       0.02565625       0.08906193      -0.36882615      -0.62009829       0.24220939      -0.54949325
C       10.81576358      20.75846841      12.06789180      -0.27673225      -0.71105816      -0.91025339      -0.55557686       1.75715184      -0.03372014
N       11.70399141      20.30506202      11.03086176      -0.23949390       0.50274482       0.42880469       0.55891651      -1.13097739      -0.90905321
C       12.19242048      18.98077446      10.94210437      -0.50238310       0.85866691      -0.27333782      -0.97364593       1.41729522       1.04291153
C       12.65229585      18.84551704       9.66109131       0.24258550       0.23625430       1.03469432       0.28515586      -2.38452768       0.30517066
N       12.46367992      19.97950920       8.96122918      -1.37505218      -1.52646779       0.91446443      -0.56935209       1.95398879      -0.92240649
C       11.92646967      20.88972290       9.79589921      -0.10924361       0.54955750      -0.50194965      -1.12034094      -0.07721162       0.64220029
H        9.99296719      20.10191008      12.31010073       0.07026323      -0.01528061      -0.27844072      -0.26989874      -0.77165574      -0.28203061
H       10.34678375      21.72122882      11.76034680       0.16361294      -0.04431245      -0.12996871       0.32469323      -0.50915629       0.08458661
H       11.33652896      20.98326617      12.98710454       0.00932708       0.18740058      -0.06746135       0.37122288       0.10259629       0.28646132
H       11.94922023      18.38345841      11.80944709       0.08572773       0.37838052       0.00210955       0.40717214      -0.66283214      -0.15937489
H       13.05651046      17.89100596       9.23588776      -0.17391952       0.27536179       0.10395168      -0.33301589       1.16140544       0.16361246
H       11.46072098      21.90179823       9.63094899      -0.17271145      -0.11201510      -0.08724877       0.84775972      -1.18304873      -0.43731967
C        7.60437747      19.80564417      16.68710308      -0.48011326      -0.96625318      -0.07008049      -0.99864733      -0.62136936      -1.46169996
N        7.65127256      18.61287938      17.54391042      -0.61197141       0.65357999      -0.52662902       0.47046214       1.16346884       0.82984853
C        8.18969918      17.42982502      17.12787965       0.38041432       1.23292880      -0.79792580      -1.46245360      -0.89638424      -0.32219961
C        7.77134676      16.50990570      18.03579907       0.42599010       0.12499548      -1.16011856       0.32380539      -1.99288726       1.77823043
N        7.16263741      17.09452562      19.14440023       0.85680467      -0.16443296      -1.13180837      -0.04626155      -0.35288861      -0.89574790
C        7.12183651      18.35902451      18.80284257      -0.91802883      -0.02139146       0.34325560      -0.50776803       2.55164146       0.64549547
H        6.69634313      19.73187331      16.00324078      -0.13205623       0.25740628       0.25752526       1.04568124       0.05694308       0.65697366
H        8.51802260      19.86644387      16.06307672      -0.33708458      -0.22082151      -0.07407250      -0.31640786      -0.20296860       0.24504566
H        7.49563043      20.75083754      17.18441431      -0.02412130       0.11247444      -0.14043125      -0.01640448       0.33752546       0.86013830
H        8.41308075      17.22081575      16.12134932      -0.10912456       0.09430803       0.06124493       0.63378274       0.11763550      -1.19850922
H        7.91072054      15.42622959      18.11039245      -0.18664919       0.16323140      -0.22884247       0.09530085       0.35986197      -0.55899584
H        6.85375957      19.18969693      19.50005338       0.51011667      -0.02209824      -0.08051964       0.04516153      -0.55785501      -0.67743951
C        6.79295360      14.86991202      21.97605744      -0.87569648       0.99537748       0.40831161      -0.20469314      -0.79483408      -0.61425126
N        6.64702656      15.95727756      22.90836482       0.49352102       0.57644276       0.25816598       0.97494465       2.25952506       0.27315199
C        7.25665827      17.25047621      22.77976627       1.13942879      -0.02983054       0.20943994      -0.11323023      -0.65243477      -0.71848059
C        6.64879140      18.09846341      23.66846758      -0.95146600      -0.01015848      -0.10276479      -0.06634146      -2.00065279       0.22684643
N        5.71204535      17.35740344      24.37647717       0.30832259      -0.32125847       0.36797904      -0.06404781      -0.25199163       0.00444701
C        5.74193435      16.10992957      23.88993320      -0.25202583       1.55084526       0.47497525       1.09146035       2.33921671      -0.20203727
H        7.80388604      14.43057633      22.00607613       0.13503322      -0.12363864      -0.00998015      -0.17931873       0.14616188      -0.03084747
H        6.58376597      15.26856079      20.96735778      -0.04675575       0.07334824       0.14557239       0.21916953      -0.26837993       0.09811983
H        6.05643488      14.07123864      22.20068178       0.05980274      -0.07870603      -0.14270702       0.27397096       0.39311713      -0.04291186
H        7.98818555      17.46347086      22.00723024       0.09259533      -0.15811317      -0.08698735      -0.10232547      -0.23592255       0.02292889
H        6.89704523      19.07903931      23.97543694      -0.08387239       0.12200601      -0.00227775       0.20857245       0.92822528       0.00880350
H        5.08422157      15.41223472      24.22299533       0.41698359      -0.11403083      -0.23909582      -1.75979900      -2.40017176       0.72912985
C       14.75060436      -1.85111334      13.86070097      -0.54009432      -0.67135716      -0.15134631       0.02491087       0.35814208       2.45979238