640
Lattice="19.152215 0.0 0.0 0.0 19.152215 0.0 0.0 0.0 19.152215" Properties=species:S:1:pos:R:3:momenta:R:3:forces:R:3 energy=-80133.0546875 stress="-0.015455511398613453 -0.0018628266407176852 -0.00027320804656483233 -0.0018628266407176852 -0.0212081465870142 -0.0013978438219055533 -0.00027320804656483233 -0.0013978438219055533 -0.016865920275449753" pbc="T T T"
C       16.61968501       3.23656146      12.19842441      -0.33439082      -0.28970461       1.13712491      -0.91206151      -0.46290755      -1.61459851
C       16.32362790       2.02115400      11.28840793       0.46336449      -0.14592942      -0.45357170       1.34494197       0.56441635       0.48673570
O       17.35007606       1.69842967      10.52732351      -1.66941233       0.69928281      -0.21927506       1.50725067      -0.18935150      -1.06372058
O       15.28973453       1.37470210      11.30689799       1.19065495      -1.25159989       0.77161362      -1.75478375      -0.09974399       0.57865798
H       25.55586293       6.42361136      12.90542889       0.08556053      -0.14960554       0.00683823       0.53200686      -0.80060601       0.69768304
H       16.77626164       2.92416620      13.22868681       0.21746043       0.45693107      -0.05184450      -0.05079379      -0.06559809       0.19987968
H       15.71602534       3.87846112      12.09319666      -0.21147982       0.16890808       0.00774807       0.54291445      -0.06889600       0.33064708
H       17.51973005       3.72043347      11.80781639      -0.23207541       0.18958984       0.03238708      -0.15932882       0.22529617       0.18536864
C       35.08943477      -4.80591762      11.42191183      -0.23271659      -0.99880750      -0.35511575      -2.63346910      -1.09381354      -2.38651609
C       35.84839976      -3.90427731      12.29532257       0.86742353       0.00322878       1.77314100       0.94097400      -1.44571543      -0.30428219
O       35.32162944      -2.94512292      12.81867831       0.59143014      -0.74707744       0.45263187      -0.99243969       1.21154523       0.97447616
O       37.13708059      -4.18091619      12.50520313      -0.52813955       0.35354598      -0.03537939       0.22216845       0.27490532       0.34201676
H       37.52453424      -4.94374266      11.95032653      -0.09418841      -0.13109673      -0.06294138       0.03005842      -0.35954252      -0.15072505
H       34.03448913      -5.06891923      11.82622874      -0.31589399       0.15390928      -0.18719471       1.78291178       0.44317847      -0.16516609
H       35.58509898      -5.74491461      11.08253309      -0.00850228       0.09307150      -0.34819286      -0.07489637       0.51310074       0.44826734
H       34.81138863      -4.25423283      10.44694544      -0.26362301      -0.05733764      -0.33880492       0.53835583      -0.58398861       1.22182763
C        7.21049091      -2.61494315      -5.11752804       1.12679613      -1.28884824      -0.06735434      -1.97337818      -0.82473117      -1.17205155
C        8.24484183      -1.59196064      -5.17975993       0.80953393      -0.08981829      -1.17308965      -0.56588113       1.22644210       1.19891000
O        8.02319070      -0.59332372      -4.34587289       0.03693096      -0.63694198       0.86496847      -0.05543995       1.03807378       0.25788045
O        9.22313291      -1.63362275      -5.89635321       0.15385913      -1.24383280      -0.73582436       1.81331837      -0.49708891      -1.72645307
H       -5.74154395       0.15573969      -1.80674494       0.34920373      -0.07691150      -0.18647252       1.10647511       0.04962933      -0.12925780
H        6.40048386      -2.42215262      -5.93372237      -0.09241688       0.24098986       0.07055340       1.65351951      -0.77263963       0.89781815
H        6.64088856      -2.50790219      -4.21409160       0.05434626      -0.14670199       0.10654351      -0.23433240      -0.00815964       0.79562014
H        7.66059042      -3.62017366      -5.14244803       0.06212982       0.11703586       0.00762173      -0.43543389       0.17271899      -0.51946133
C       -4.48571849       2.50520954      -4.07558986      -0.95604980      -0.81140218       0.09889807       1.36849070       0.24011967       0.68002242
C       -4.54048839       1.60270714      -2.81959055      -0.61327969       0.35277901      -0.12520168      -3.12810087      -1.86368465      -2.21489716
O       -3.68306751       1.66469650      -1.99982677      -0.34982999       0.01409692      -1.18080310       2.55050421       0.42071986       2.31090260
O       -5.53785372       0.65517374      -2.77306755      -0.35939761       0.13618955      -0.30585932       0.31814951       1.90035462      -1.40238833
H       10.98450545      13.21244634     -23.25930546       0.07664135       0.16670998      -0.13643178      -0.08218953       0.09086329       0.26328582
H       -3.91922067       1.99846725      -4.88197901      -0.23961044       0.12877299       0.36298105      -0.47349125       0.17936966       0.31195167
H       -3.88420937     -15.74045439      -3.80062458       0.02216837      -0.37833862      -0.16208115      -0.43615401      -0.71555233      -0.17570706
H       -5.40931072     -16.28005136      -4.46681966       0.12306238      -0.13699300       0.05090245      -0.99336028      -0.07659240      -0.25451308
C       16.04546200      16.83536051      23.06391361       0.96081222      -0.06908547       0.93489037      -0.95037407       1.49958539       0.90801674
C       16.23389452      16.33820164      21.62804131       0.38935684       0.20015092      -0.16045962       0.33716267      -1.14999437      -0.39222336
O       16.41106890      15.10755895      21.45737420      -1.01415421       0.03530481      -0.34606153      -0.29388100       1.34500170      -0.08307219
O       16.29174637      17.23634913      20.56019307       1.05276094       0.29056331      -0.66738789      -0.49326405      -0.73988044       1.77749646
H       19.48741895      37.40929060      28.02880565       0.08842116      -0.00747076      -0.10279428       0.70798343       0.25143957      -0.25719208
H       14.92942271      17.07159245      23.39010613       0.44643763      -0.02960876       0.11451762       1.91434705      -0.63248962      -0.89360118
H       16.58696246      17.81487604      23.25117368       0.33026060       0.16120148      -0.07930130      -0.42730322      -0.80758882      -0.32307106
H       16.48645253      16.08215770      23.78957996       0.31275658       0.20349762       0.00841818      -0.54588395       0.68768644      -0.86694264
C       26.00073362       8.10488977       8.75352003       0.38263357       0.13952542      -0.01921842      -0.39117417      -0.08017705       0.76709211
C       26.92906457       9.16612596       8.30228529       0.12775830      -0.08129306      -0.62087170      -0.17710763       2.14783025       0.28407621
O       26.87060155      10.27013276       8.91641339       0.40788627      -0.37044891      -1.08030262       0.59469569      -1.18204594      -1.32235360
O       27.70295426       8.88526505       7.24469576       0.12531463       0.27832661      -0.62967133       0.30475593       0.94624382      -0.31412667
H       28.20238487       9.73290797       6.84467267      -0.16254123      -0.07874387       0.09716878      -0.27650160      -0.63575125       0.55212563
H       26.12213177       8.14367141       9.88087886       0.10103065      -0.23344461      -0.13833540      -0.29023075      -0.64248860      -1.04552531
H       26.21554144       7.11160525       8.30117239      -0.06301769      -0.02174361       0.03903388      -0.29801306       0.52837086       0.37407750
H       24.96013622       8.50281754       8.55706909       0.12719177       0.10338490       0.12139389       0.79689252      -0.75290608       0.07688376
C       19.89147122      12.71873316       1.47333453      -0.03070248      -1.26563104       0.57104892      -0.67350215       0.79294515      -0.46551543
C       20.02333949      11.98705604       0.15871323       0.47576751       0.52692506       0.67703308       1.85780358       2.60165644      -0.07232010
O       20.94945749      12.47878871      -0.67520355      -0.47121331      -0.27902770      -0.32344466       0.26353821      -0.25347003      -0.05089092
O       19.27533488      11.09222796      -0.15292820       0.36782083      -0.83516167      -1.08615879      -1.50942612      -1.90329266      -0.65969253
H       16.22155337      16.65461511       0.55747861      -0.18043619       0.23850283       0.17453726       0.12437035      -0.32805514       0.21107170
H       20.43618358      13.65899850       1.35969884      -0.03273128       0.16377694       0.08556798       0.13751057       0.01496081       0.42794546
H       20.32289118      12.12351192       2.26667684      -0.50022923       0.34556996       0.21961067      -0.01591830      -0.21405175       0.65913582
H       18.82029347      12.99201283       1.63074247      -0.15939896      -0.24112780       0.34994933       0.60701895      -0.53605199       0.24374826
C        1.37098569      23.11078813       2.20958835       0.04675402      -0.36183971       0.63359869      -2.08761430      -1.07542443      -0.20523964
C        0.20263523      24.08127855       2.46441508       0.86239712       0.12940817       0.76411006      -0.35665005      -1.43090582      -0.11936688
O       -0.96998756      23.95246280       1.73626011      -0.80847963       0.06775902       0.83298543       0.84498638       1.56641412       1.18832886
O       19.37066887      24.87976265       3.37892842       1.12908968      -0.49984331       0.02022365       0.34261614       0.65025699       0.12597799
H      -11.03880380      21.71564199      18.11738536       0.13874866      -0.35406281      -0.19839246       0.62123221       0.01235887       2.14787436
H        2.22563226      23.40172947       2.81089071       0.11898692      -0.39231604       0.31305705       0.34545842       0.21513146      -0.37670919
H        1.43499378      22.99777008       1.12086489      -0.21670487      -0.12165222       0.00540366       0.88719326       0.17068520       0.00337575
H        1.07058228      22.06033680       2.54221563       0.25509571       0.23910163       0.04676725       0.10551217       1.11162746      -0.12469531
C       -8.44004763       2.73582707      16.20154400      -1.09605713      -0.46469957       0.43235473       1.63593841      -1.14244246      -0.99870324
C       -9.75941632       2.06411812      15.75044465       0.09084485       0.80871576      -0.55078422       1.78788471       0.37736022       0.64174080
O       -9.58257744       1.33711089      14.67343246      -0.30850566       0.05038294      -0.05510437      -1.06392229       0.12430800       0.53715956
O      -10.77236128      21.34882068      16.48402967      -0.18205855       0.11279239      -1.27869164      -0.20795608      -0.13176396      -0.78712434
H       -1.88403002      20.06755514       9.83993805       0.01586014      -0.18865355       0.28008652      -0.94564807       0.48996484       0.77273327
H       -8.06651767       2.22597373      17.10729719      -0.19762463       0.05712653      -0.19839787      -0.11485981      -0.45057493      -0.15674068
H       -8.55795531       3.72738710      16.58984811      -0.24721532       0.00952844      -0.09267690      -0.26576981       1.04233205      -0.24976546
H       -7.57952563       2.62860326      15.40783588       0.11349009       0.00925495      -0.05676927      -1.80773139       0.43015176       1.49412584
C       18.82797902       0.37790801       0.41364280       0.11992441      -0.23723002      -0.92904166       0.36055058       1.01530600       1.07168162
C       37.79427034       1.82861230      -0.09234665       1.00304309       0.09803397      -0.06653135       1.80145824      -1.63236153      -0.94139266
O       36.84496928       2.53630069       0.22034254       1.80042532      -0.06364524       0.54775308      -1.05689192       0.88164103       0.83752269
O       19.58867169       2.18039473      -0.95071260      -1.52636387      -0.46663639       0.25451418      -0.23537958       0.99502110      -0.42718557
H       34.73663505       8.36793949       4.20263807       0.17010999       0.34062726       0.03835818      -0.13432889       0.62563682       0.39704663
H       18.71724495       0.37671038       1.53819988      -0.10389252       0.16486176      -0.03664208       0.55159432       0.01890607      -0.92043245
H       19.80363490      -0.07255232       0.07233459       0.08736927      -0.10459562      -0.07774448      -1.08971727       0.40586454       0.35792455
H       17.94911873      -0.15902496       0.10125792      -0.03183056      -0.06940500       0.07929905      -0.39915472      -0.72489202      -0.54562938
C       20.04188286      16.88435769       2.70312884      -1.26467292       0.55551064      -0.46771523       0.49367177       3.37896514       0.64461315
C       20.07455283      18.00742639       3.84417520      -1.12199290      -1.23593454       0.02088197      -0.18518935      -0.76301169      -0.76925278
O       20.40627069      19.18734410       3.69399173       0.74910854      -0.46687789       1.76690915       0.30439597      -0.15171146      -0.88978809
O       19.66330048      17.61935679       5.01546306      -0.54550119       0.12880861       0.03263465      -0.39146689      -1.01929402       1.96123266
H       22.20768288      -6.55599270       4.62585745       0.23804531       0.03090532      -0.06831453       0.34814918      -0.41069159       0.09934205
H       19.99399308      15.94520852       3.18412739      -0.14517827      -0.24232987       0.31258411       0.28030828      -1.24439895       0.21667245
H       20.94823135      17.10734454       2.10637555       0.15593489      -0.00304660      -0.01510815      -0.48211142      -0.59781581      -0.02077979
H       19.12416877      17.10719391       2.15034393      -0.00698353      -0.30539837       0.14000471       0.09602023      -0.23050885      -0.36674476
C       -6.00116896      14.49662809      25.75943052       0.09032648      -0.12728128      -0.75661428       0.02594233       0.35540116       0.50106573
C       -5.70367141      13.18756867      26.54554314      -1.17004192      -1.22109856      -0.45331466      -1.17229569       1.11965096       2.35128474
O       -6.34819459      12.75398974       8.39958284       0.88438811       0.85781370       0.02652963       0.63552260       0.91100466      -1.95046043
O       -4.53558170      12.70884726       7.05027558       0.10428012       1.38598852       0.28224242       0.79478329       0.07085502      -1.02174568
H        0.14273038       3.28373348      17.61049947       0.02034760      -0.10751763       0.28120351      -0.21227831      -0.09941328       0.15547413
H       -6.17492260      14.33864334      24.66121393      -0.01439923      -0.02769177      -0.23348710      -0.11710936      -0.09007258       0.88839781
H       -5.04939127      15.09941336      25.82062721      -0.28840133      -0.12217039      -0.18371925      -0.83182675      -0.34725204      -0.12390555
H       -6.81953606      15.10192061      26.26219275      -0.23083953      -0.26648931       0.03684726       0.73500657      -0.79463100      -0.68595660
C        0.09972940       7.85389925       5.70294270      -0.28774657      -0.54253612      -0.73782695      -0.85455358       1.23297060      -0.26469827
C        0.46767480       9.33271334       5.81302261      -0.81360781      -0.69160891       0.70292135       1.42810178      -1.09713769       0.70673078
O       -0.23542714      10.30431556       5.63679024      -1.01676706      -0.12708939       0.75569571      -0.69592237       0.28225818      -0.43289262
O        1.75384085       9.46193308       6.29352974      -0.07751502       1.71484784      -0.72423312      -0.34071839      -0.16947466      -0.11188900
H        0.18031101       5.28184211      11.13873537      -0.16610025      -0.13234255      -0.11214808       0.08476466       0.14989406       0.43466592
H        0.67230769       7.20249034       5.05548177       0.06357181      -0.39195026       0.26230152       0.31181309       0.30879104      -0.51193058
H       -0.95989748       7.80075106       5.44849115      -0.23331256       0.13637578      -0.18121856      -0.10837123      -0.03591444      -0.34661752
H        0.13803425       7.41804267       6.67539157       0.06998955      -0.05999211       0.11300391       0.17446154      -0.31367013       1.11867166
C       -8.49307231      11.54633937      17.88562317      -0.13530372       0.46985725      -0.25392187      -1.58129323      -2.29454923      -0.10247815
C       -8.03248450      11.82384345      16.50533275      -0.29375575       0.00468160       0.72468345       0.79765141       0.88152510      -1.62514210
O       -7.26744672      30.29569911      15.78867180       0.47761741      -0.66199003      -0.18357635      -0.49746716      -0.31859910       1.07590270
O       -8.49338841      12.98457318      16.05397462      -1.11248427       1.12613415       0.31473230      -0.59882283       0.66473371      -0.01064724
H       21.14537705      10.43335597      25.51567422      -0.11592143      -0.07938286      -0.00680539       0.17445672      -0.07795328      -0.15473738
H       -9.04963146      31.47987309      18.41440505       0.03841192       0.09903593       0.05076615       0.57240450       0.27570951      -0.21623814
H       -7.63662766      11.13336053      18.40898153      -0.00801215      -0.15681935       0.04447533      -0.01460162      -0.17360222       0.59237552
H       -9.28816884      10.70438410      17.77529692       0.12787337       0.23991267       0.29249026       1.48707461       1.03513479       0.37231749
C        2.29315225      15.71244338      -0.34064987      -0.31357593      -0.36772311       0.13976130      -0.73985577      -0.94894147       1.43022299
C        3.61188133      15.12641674       0.18698175       0.61311269      -0.34783107      -0.26974323      -1.06283104       2.05239320      -1.10477948
O        3.68623152      13.88433969      19.21927489       1.11598032      -1.04481424      -1.39910764       0.36124623      -4.31354284      -0.08611447
O        4.55412683      15.80429660       0.62212408       0.71732224       0.60408050       0.70425929       0.12613285       0.85819244       0.44838262
H        8.73557782      19.42996958      -4.49223070       0.26501346      -0.03405286       0.04761516      -0.43488750      -0.64570606       0.43863434
H        1.41180819      15.32138177       0.25797194       0.11329772      -0.09709325      -0.09402036       0.89483297       0.35626107      -0.51271802
H        2.07141486      15.46145573      17.78201023      -0.10881863       0.11557738      -0.11542848       0.28286287      -0.03586156      -0.39729869
H        2.31927550      16.75077195      -0.18585733      -0.04835238       0.11773308       0.25911462      -0.26829186       1.32351804       0.18797290
C        3.93175700      25.66851426      20.28284655       0.01977464      -0.69689264       0.81135598       4.44789839      -1.02850819      -1.63194489
C        4.15095426      24.93327582      18.94688932      -0.04124740       0.66673552      -0.33504253      -2.18892550      -0.68685222       1.49655795
O        3.77321770      25.33778833      17.85767043      -1.46333709      -0.03858355      -1.15443476       0.61795729       0.22984886      -0.63414764
O        4.47948908      23.64690595      19.22766495      -0.76066645       0.53487817      -0.04308711       0.81612849      -0.29961938      -1.36606848
H        2.73381004      13.18234373      18.81122351      -0.13455800       0.30615797       0.14249259      -0.64625400       0.16619891       0.47716045
H        4.94798637      25.39491838      20.79336959       0.08828109       0.41364545      -0.20649381      -2.15271139       0.59550375      -0.06016949
H        3.05766064      25.31987111      20.74157636       0.42795550      -0.02978526       0.19499787      -1.13599491      -0.42317429       1.05978715
H        3.95630234      26.69494856      20.01419127       0.04667280      -0.55339618      -0.17952716      -0.35915393       1.23074806       0.11367680
C        6.28071764       3.29927459      11.77830191       1.21481827       0.34534909       0.57959943       2.27052164      -0.08543372       0.59870136
N        5.51441820       2.13851420      12.16723309       0.28892983      -0.68258490       0.10553253       0.17891806      -0.40024149      -1.16841149
C        6.03084323       0.96354587      12.74004657       0.54375624       0.30837374       0.09003921      -2.58472443       0.57501274      -1.26724839
C        5.02423741       0.03218139      12.50772005      -0.41973082       0.67287876      -1.18816024      -0.85292196      -0.11017954       0.05728948
N        3.96210140       0.58602000      11.78638368      -0.25800387      -0.06799891       0.22194079       0.72400469      -0.45825389      -0.55380249
C        4.34172060       1.82283538      11.51036896      -0.09437831       1.32689645      -0.14290858      -1.20370662       1.08314705       1.41973984
H        6.82830896       3.14588869      10.84240765       0.28032310       0.00331541       0.35824567      -0.75233674      -0.06754247      -0.68066669
H        7.17830759       3.41501440      12.41901245      -0.02391289       0.01328104       0.00187816      -0.67208081      -0.08143504       0.46394104
H        5.72973016       4.22470008      11.82259651      -0.13378138       0.02106123      -0.16965768      -0.33251423       0.21646667      -0.19896305
H        6.99253954       1.01410739      13.14390322      -0.11661703       0.05775306       0.01945012       1.21662068      -0.35785076       0.72856867
H        4.81526529      -0.98394188      12.85123541      -0.09304999      -0.26492929       0.45072952       0.79148722       0.37494832       0.04387960
H        3.62614909       2.62663152      11.17877514       0.33864704       0.22383434       0.17048801       0.95251685      -0.90600300       0.08191216
C       15.98470736      10.50280390      17.75312319      -0.38827402      -0.58651718      -0.20342172       1.42008936       2.49616289      -0.87224609
N       16.18726033      10.89887546      16.31854777      -0.56318407       0.65589842       0.84885308      -0.97443581      -0.57603931      -0.34925139
C       15.14426110      11.38611719      15.50279947      -0.06244068      -0.35960114       0.12707955       1.86210144      -0.47865924      -0.03430521
C       15.65864421      11.30503784      14.23748283       1.17908036       0.17207894       0.04728762      -1.14285290       0.57408053      -1.65866065
N       16.93388949      10.78219910      14.19068438       0.22524035       0.15713675      -0.06344587      -0.60516089       0.37457454      -0.59760171
C       17.17548375      10.55766958      15.45661966      -1.15439085       0.29132059       1.11779939       2.53098154      -1.58860159       1.52782166
H       16.96645714      -8.80660635      18.27997062      -0.20299789       0.07226382      -0.01883980      -0.78273129      -0.18723249      -0.60738444
H       15.29482199      -9.47978220      17.79476754      -0.04671277       0.11137411       0.28454010      -0.37961197      -0.12749028       0.49409664
H       15.63527742      11.51789134      18.05894949      -0.16432258      -0.08197481       0.12378368      -0.56581235      -1.19376063       1.06903946
H       14.17388558      11.62530117      15.82732161       0.24964968      -0.15978372       0.24256206      -1.11567771       0.29532930       0.61659092
H       15.11372658      11.59307025      13.32058523       0.00946162      -0.04822220      -0.11435830       0.43507046      -0.17847386       0.45797902
H       18.07293183      10.00116744      15.80698646       0.17801516      -0.14929873      -0.16631221      -0.68886244       0.56309938      -0.17801732
C       27.44216305      13.30433947       8.56912589      -0.60187816       0.25188973      -0.17209934       2.27471137      -0.67549133      -2.36824512
N       26.60528976      14.03127587       9.44608097       0.48695649      -0.11084863      -0.01035870      -0.36915320       1.08624077       1.51316535
C       26.15374540      15.32288753       9.33882648       0.48687690       0.97016286       0.07737901      -0.08566606       0.74906421      -0.68633318
C       25.36361870      15.54824318      10.45342450       0.32592545      -0.78262882       0.09156806      -0.31245223       1.67819571      -1.06854141
N       25.34366846      14.48323156      11.28892066      -0.20327190      -0.28579381      -0.87499910       0.83758813      -0.66236180      -0.03529608
C       26.16644831      13.62812764      10.67999848      -0.07522862       1.01603523      -0.55427580       0.21705684      -1.56486809       0.15156299
H       28.02779416      13.97218110       7.83336303      -0.42957773       0.02371795      -0.23230454      -1.13137817      -0.52126074       1.03394711
H       26.87007868      12.57421599       7.94173282      -0.32133576       0.01393444       0.11037097       0.43812758       0.32426673       0.54605275
H       28.28198910      12.77530864       9.09744096      -0.20599829      -0.14273177      -0.00047797      -0.99306798       0.21961914      -0.17588183
H       26.52781296      15.98613452       8.55445660       0.31831819       0.14954701       0.00465743      -0.24172147      -0.21640393       0.22578999
H       24.80449824      16.47049005      10.61377126       0.03924090       0.02745835      -0.20203785       0.00423133      -0.22489190       0.24904694
H       26.62780908      12.73447881      11.09038996       0.07094451       0.09917115      -0.10491059      -0.31952304      -0.08395970       0.17594336
C        3.75222459      25.99625937       5.30163919      -0.78612435      -0.66840503       0.07727170      -0.09638406      -0.76204592       0.01284027
N        3.90853778      25.53754083       6.70743840      -0.77898751      -0.11302852      -0.02142793       0.21323836       0.96331072      -0.08185434
C        4.79498868      24.52547769       7.19028036      -0.40974859      -0.03830152       0.30935046      -2.00968742       0.51474130      -0.73026693
C        4.55733109      24.53938607       8.56111075      -0.21337774      -0.24074687       0.36576338       0.01315145      -0.04948193      -0.01564642
N        3.63003489      25.54774248       8.82609597      -0.00407532       0.28170088      -0.76891527       0.98976827      -0.74101365       2.59339905
C        3.25912956      26.18992884       7.74918387       1.01793201      -0.59791095      -0.03847672       1.57959020      -2.00506854      -2.24014783
H        3.02257753      26.76910590       5.35978492      -0.18216777       0.18031266      -0.17028992      -0.73588187       0.69519567      -0.13150024
H        3.35521368      25.17630024       4.65863440       0.03772698       0.22652825      -0.04043006       0.45941663       0.40067667       0.37205315
H        4.65522532      26.45910986       4.88440131       0.25140896      -0.11566641      -0.20488259       0.07410330      -0.40189034       0.26725337
H        5.18383699      23.85521140       6.36826538      -0.16909534      -0.21620357       0.20700612       0.01712474       0.57586288       1.61434197
H        4.89429241      23.97741621       9.44255496      -0.22179181      -0.29063330       0.33207240       0.14559391      -0.04990375      -0.77929819
H        2.63674906      27.04096310       7.64468313       0.00327654       0.13794879       0.28426251      -0.49507821       0.66411257      -0.06769398
C       20.10955073       9.24575705      11.38531214      -0.16549849       0.28959599       0.35216150      -0.15778431      -0.80069661      -2.43357420
N       19.91555007      10.65676682      11.11098705      -0.26236253       1.34333231      -0.86398413      -0.51211333       2.90761209      -1.22320032
C       19.83094617      11.22681926       9.81916478      -0.78257812       0.50666701      -0.01262554       1.17161274      -1.62484729      -0.00319426
C       19.54597992      12.53209455       9.94445572      -0.25982261       0.66599008       0.79218092      -1.33132887       1.91962504      -0.79010189
N       19.29452978      12.90762447      11.25719662       0.10367931       0.78303439       1.13688479       0.64794791      -2.75303745       0.92316902
C       19.51813266      11.71178352      11.93092484       0.78509379      -0.81991563      -0.09754946      -0.58986259       0.04100621       0.16580343
H       21.16389488       8.91236028      11.60106184      -0.04084780       0.27371222       0.13332542      -1.06758714       0.65933311      -0.17245430
H       19.74066550       8.72949850      10.40782540      -0.02196681      -0.12891982       0.12276933       0.82327080       0.53018445       1.66241813
H       19.39022014       8.98788366      12.12579766       0.00722384       0.09344912       0.00518278      -0.35315883      -0.53692949       1.08036923
H       20.04461796      10.69537082       8.89792124      -0.12141845      -0.15863515       0.01246050       0.02800848      -0.23140210       0.20536274
H       19.34806897      13.22079223       9.09463102      -0.32499646       0.12790665      -0.18813950       0.25104696      -0.61362904       0.92431015
H       19.10832006      11.42898850      12.90670832      -0.47030565      -0.37102117      -0.25375932       0.23516980       0.50120008      -0.00236797
C       11.35331882      21.79934711      12.38535821      -0.19880873       0.77194227      -0.37856416       0.58490825      -1.62971866      -0.00210658