640
Lattice="19.152215 0.0 0.0 0.0 19.152215 0.0 0.0 0.0 19.152215" Properties=species:S:1:pos:R:3:momenta:R:3:forces:R:3 energy=-80130.5703125 stress="-0.01716878078877926 -0.0025282208807766438 0.0010985787957906723 -0.0025282208807766438 -0.018955813720822334 0.0015501499874517322 0.0010985787957906723 0.0015501499874517322 -0.015414505265653133" pbc="T T T"
C       15.17849183       3.96953749      11.36312172      -0.18347813       0.71723685       0.41902522      -1.83368134       0.04781622       1.44651616
C       16.05316722       4.74833082      10.42722064      -1.28037348      -0.98051460      -1.12688742       1.48263431      -0.55659038      -1.13891399
O       17.23492577       4.39089445      10.12691029       0.42815618      -1.53657861       0.41008492      -1.72614956       0.71277547       0.61288822
O       15.45067237       5.81490213       9.87061940      -0.46639584      -0.50108074      -0.11463800       1.18561900       0.27555615      -0.11244024
H       23.87381250       2.31052041      11.05856608      -0.09083852      -0.28069120      -0.04780063      -0.01608907      -0.48872808       0.19203109
H       15.02879627       2.87659800      11.04389562       0.08537280      -0.02739440       0.10128610       0.44597742       1.45803368       0.54761553
H       14.12844370       4.45913118      11.47884412      -0.24988043      -0.23588173      -0.04224282       1.73872161      -0.88752377      -0.50097895
H       15.62065040       4.05453648      12.41732459       0.02059419       0.27820988       0.40228723      -0.35261449      -0.53174514      -1.18578792
C       36.35802553      -5.60208863       9.83084532       1.09291775      -0.46928604      -0.55389232      -0.44751316       1.46512556       1.00776863
C       35.73082728      -4.91145810      11.11992038       0.43590709      -0.01787449       0.61717421       0.73089492      -1.73923135      -1.42525685
O       34.83315511      -4.10909529      11.05141393      -0.07100183      -0.29060894       1.64225368      -0.83730203       0.97969657       0.08945060
O       36.23861811      -5.35594569      12.29389595      -0.29721295       0.43701480      -0.35342495      -0.53978813       0.08368915      -0.52755976
H       36.94094470      -6.04032664      12.03630764      -0.00203742       0.10308026       0.06677833       0.92586350      -0.02927953       0.71207714
H       36.10544302      -5.00544928       8.93208033      -0.09552427       0.17325852       0.04280657       0.31698701      -0.35414243       0.52254289
H       36.06495986      -6.63807964       9.71242381       0.27215908       0.10212583      -0.34426497      -0.52059102      -0.37144351      -0.01337848
H       37.41904250      -5.64082002      10.04231074       0.07475724      -0.09156231       0.08307369       0.57776970       0.19360457      -0.55439144
C        7.31669131      -7.74568084      -4.78029396       1.30231234      -0.64543496       0.97689157       0.46600312      -0.92196119      -0.66579032
C        7.65002132      -6.33222654      -5.21345167      -0.05700470      -0.31439400       0.32571974      -0.07042971       2.27516556       1.11124027
O        8.74331250      -5.74332013      -4.55144972       0.54732215       0.78851343      -0.20682401      -0.64849889      -0.77270842      -0.79223168
O        6.89186665      -5.63397210      -5.90466003      -1.48874942       0.94020254      -1.08391292       0.56061393      -0.70889664      -0.02764160
H       -4.35232332       2.81454738      -3.56372578       0.07806094      -0.08161828       0.06863863       0.20336843       0.66397405      -0.17985493
H        8.19455649      -8.45191928      -5.00258116      -0.13631583       0.19593708       0.32083053      -0.94893992       1.02998316       0.35162929
H        6.46191607      -8.12373423      -5.48866650       0.21301011      -0.21426134       0.34253314       1.24889064       0.58581126       1.79556680
H        7.14120354      -7.76849158      -3.64030056      -0.05992916      -0.20161537      -0.02115734      -0.18383443      -0.19012448      -1.74690390
C       -0.82925464       2.93549398      -4.29500644       0.14922905       0.28783218       0.12616040      -0.54895997      -1.47156155      -0.47310370
C       -2.21863039       3.29976909      -3.87508741      -0.68510635      -0.80140590      -0.09269518      -2.22279000      -1.36641896       0.57670921
O       -3.22708987       2.52717984      -4.28396516      -0.50011653       1.36500978      -0.35477948       0.30787429       0.47815245       0.31366131
O       -2.40296465       4.22977691      -3.04731810       0.46070490       0.02986149      -0.58079807       0.08758566       0.34738412      -0.20233223
H        8.80071574       4.02475227     -17.37253628       0.12188385      -0.11537885       0.45996589       0.34449103      -0.27362573       0.16651967
H       -0.71092854       2.84792179      -5.38456075      -0.19851602      -0.02207218       0.03571714      -0.13442695       0.29472446       0.07484036
H       -0.53959666     -17.25455816      -3.92083945       0.00442884      -0.37957028      -0.02266589      -0.04120250       1.48402548       0.05302791
H       -0.34491809     -15.35219183      -3.90099583      -0.21867220       0.19272082      -0.02277534       1.73336792       0.04965380       0.32316965
C       21.68606026      14.32994082      21.28343419       0.89884639      -0.37352310      -1.32827028      -0.20974857       1.28575313      -0.55392653
C       20.43747972      14.73530288      20.48905552      -0.09456247       0.75965770      -0.02836438      -0.20949996      -0.30365139       1.35968101
O       19.60592437      13.69056041      20.16187456      -0.48207492      -0.33724824      -0.78970956      -0.43428683       0.69969106      -0.54619241
O       20.19272761      15.91124524      20.25243496      -0.07724411      -0.18247581       0.49314766      -0.26163018      -0.03588539      -0.44888973
H       18.59652122      33.59934510      23.76037509      -0.26409148       0.13478435      -0.05701394       0.16900446      -0.93724489       0.72989368
H       22.09773797      15.28911704      21.68892560      -0.16120748       0.08317506      -0.37516628      -0.31807548      -0.70595515       0.00170755
H       22.36876720      14.08702472      20.46754977       0.05360452       0.03343060      -0.28847917       0.38421518      -0.60819548       0.22337890
H       21.61683789      13.56757133      22.08307680       0.17917995      -0.16777818       0.10995043      -0.16811538       0.18238665      -0.61029083
C       25.44794819      12.17392706       7.73615077       0.48977594      -0.58317051      -0.00654745       0.92587078      -0.24686119      -0.99018413
C       24.53840769      11.32573893       8.55865482       0.26053107       0.18338385      -0.03668817      -0.16320467       0.42088440      -0.23257792
O       24.07218787      11.68528392       9.62694459      -0.64618276      -0.12464796       0.95182186      -0.06560066       0.33011514       0.94595736
O       24.14191271      10.17878434       7.99814821      -1.12549773      -0.19077756      -0.51104934       0.24459946      -0.34443921      -1.08466172
H       23.36512091       9.81275302       8.48515211      -0.04196115       0.15297332       0.13440848       0.23072249      -0.26958451       0.17847204
H       26.46069487      12.31768504       8.17540028      -0.04099745       0.21444193      -0.25262390      -0.55362284      -0.04196934       0.21832976
H       24.95700870      13.15655606       7.61798349      -0.00274889       0.00699856       0.19246369       0.25483000      -0.22601071      -0.11422471
H       25.65484463      11.71863946       6.73598956       0.18415815       0.04129551       0.00500453      -0.45096469       0.19678792       0.60097849
C       18.42870629      11.24345294      -2.53660393       0.11199155       0.48176655      -0.23736555      -2.19374228       1.06287479      -0.92267120
C       18.05487228      12.75160811      -2.52094245       1.00452763      -0.27629989      -0.53998290      -1.05487192      -0.37981629       0.41322738
O       16.83630071      13.02538684      -2.05263021      -0.43391245      -0.79474871      -0.02624034       1.91848958      -0.40836430      -0.25427750
O       18.84103611      13.61378951      -3.02865625       0.30499070      -0.30111365      -0.33741038      -0.45614755      -0.23740482       0.24554262
H       18.02915690      14.83538091      -3.37451089      -0.10943845       0.07776593      -0.06775292       0.25640389       0.45387536       0.22998863
H       19.43533827      11.04010287      -2.80706629      -0.02038427       0.08029237      -0.04299064       1.01613283      -0.00435880      -1.04838777
H       17.61806274      10.88095258      -3.29570361      -0.17312594      -0.19562892      -0.04617279       1.58132601      -0.30842376       1.25827336
H       18.34831161      10.78479886      -1.55318373      -0.00418125       0.23285666       0.21712637      -0.73813987      -0.09536690       0.28596351
C        3.74604352      20.71864919       4.00523695       0.15836347      -0.62073327      -0.17167637       3.99742222       1.70046496       1.65769935
C        2.33893886      20.88492891       3.99082613       0.73455773      -0.44889813       0.05760214      -3.04753017       1.07739103      -0.21326397
O        1.75250244      22.09794053       4.14340000       0.44999099       0.23174013       0.00487625       1.81972659       1.38226616       0.03554530
O       20.72058407      19.94903812       3.84543876       0.45367251       0.33712969      -0.31609326      -0.44463697      -1.32897067      -0.13193035
H      -11.12862871      18.84908029      16.56437524      -0.10925837       0.06832810      -0.10228209      -0.64464688       1.00083041       0.49017799
H        4.31093102      21.14901755       4.92879932       0.31052465       0.03362973       0.09846241      -1.41150486      -0.44908822      -1.00371993
H        4.33457609      21.25564616       3.22778174       0.03721195      -0.12709129      -0.23901805      -0.56115955      -0.54685855      -0.13457835
H        3.91992510      19.67566423       4.07662169       0.19727688       0.21747071      -0.26300254       0.66785330      -1.23319435      -0.54508853
C      -11.91913777      -1.72932000      13.51713264      -0.58520192      -1.21852459       0.77691633       0.94909710      -0.60873318      -1.32744455
C      -11.01715328      -2.22534958      14.65333332      -0.95332382      -0.31678584      -0.42506429      -0.24194288       0.05009943       0.36032391
O      -11.25269652      -1.76703401      15.81630027      -0.23558757       0.68007997       0.09864154      -0.34969369       0.43754846       0.16736722
O      -10.08503790      16.07199453      14.44348404       0.86664239      -0.22986516      -0.10424352       0.03127849      -0.33604240      -0.86456335
H       -4.30659478      18.75482303       6.69813054      -0.11654206       0.08552587       0.25631933      -0.70894021      -0.96254188       0.07470188
H      -12.92266165      -2.01688607      13.75977980      -0.06917459      -0.09111517       0.03667192      -0.90947580      -0.47671828       0.14807017
H      -11.66935508      -2.15662624      12.47299242      -0.33638496      -0.09173572       0.03379676      -0.11196204       0.65068686       1.72603440
H      -11.99120667      -0.63637757      13.50592750       0.04226034       0.23797923      -0.30026112       0.38107020       0.12504697      -0.06010112
C       14.09249298      -0.07657846       1.87411920       0.48713405      -0.43991683      -0.75090036      -1.68609774       0.37273049      -2.08931851
C       34.08306221       1.12299533       1.51515050       0.16368998      -1.06800845      -0.77670398      -0.76906312      -1.65950537       1.14266109
O       34.96333639       1.46095808       2.41382408       1.32112577       0.17446230      -0.12654479       1.32985985       0.65955669       1.62731183
O       14.83059789       1.73179303       0.48339836       0.20728657      -0.57281191       0.02601484      -0.67004466       1.03345942      -2.56571031
H       33.68283235       7.38745669       1.08360299       0.14454583       0.06785531       0.01955003       0.43542191       0.25278383       0.38891411
H       13.90628422      -0.26041076       2.91016558      -0.12220096      -0.17054777       0.11943410      -0.35401610       0.48236623       1.00225019
H       14.60162583      -0.99109425       1.57619364       0.20018225      -0.20488474       0.01440689       0.26844412      -0.31587651      -0.59810030
H       13.10425603       0.04568582       1.25213400      -0.07513678       0.05573423      -0.14105300       1.71432590      -0.49440864       1.33781338
C       22.68698803      17.42932425       6.13101138      -0.24459154       0.20736533       1.43984669       1.17971039      -1.37767494      -1.40068221
C       23.85927258      16.51328867       5.61421882      -0.18299832       0.36393241       0.21325553       0.40072018       1.33369422       1.35517907
O       23.80006627      15.60256908       4.79300613      -0.29746183      -0.48732408      -0.48343791      -0.64836997       0.11441499      -0.26222894
O       24.99507883      16.85353829       6.23307294      -0.50167793      -0.05695846      -0.01660125      -0.88775080       0.73230016       0.44241905
H       25.77241253      -2.91325313       6.01472985      -0.13547697       0.02773468       0.07144521       0.69558913      -0.91039187      -0.64819753
H       21.85050848      17.10450735       5.51027676      -0.40169548       0.30213893       0.28330023      -0.42265105       0.57444972       0.18176800
H       22.95795505      18.49237251       6.09629633       0.31210742       0.10497024      -0.20311772      -0.12406546      -0.14166178      -0.36227036
H       22.55163891      17.18275817       7.17107705      -0.35603549      -0.04966180       0.07723062      -0.37867391      -0.25619650       0.68855613
C       -5.07595847      11.23236534      24.26353881      -1.07636186      -0.29316982      -0.64829289       1.83622646       1.05665910       0.78828466
C       -5.12946946      11.40550651      25.77936804       0.68951196      -1.55122974      -0.60220632      -1.52272606      -0.24087703       0.82646418
O       -5.65750927      12.39461719       7.15106297      -0.46245976       0.39472864      -0.36946752      -0.10237110       0.68618697      -0.19232559
O       -4.70973418      10.38656622       7.35636917       2.22521425       1.88662154       1.10261528       0.54007018      -1.11390305       0.36437911
H       -2.80193579       2.27947723      21.17118518       0.14922570       0.21820471       0.22817809       0.53325415      -0.24108277       0.02318931
H       -3.98652186      11.01107013      24.05995816      -0.16293407      -0.12304990       0.14290518      -1.03530693       0.25054634      -0.41202015
H       -5.46085341      12.16243556      23.83400518      -0.11687709      -0.08943362      -0.03900829       0.55796796       0.12389120      -0.08962888
H       -5.69532399      10.48286491      23.83267708       0.23279846       0.17165358       0.19880740      -0.39926815      -1.23746490       0.05083671
C       -1.55580750       8.29704044      11.03789466      -0.91221073       0.05157474      -1.25540296      -1.28378224      -1.45638299       1.14040196
C       -1.21427482       8.09692575       9.60170973      -0.21804696      -0.04172565       0.30629817       0.26742983       0.53845614       0.33463007
O       -1.99090688       7.43676570       8.85813301      -1.70860556       0.50564579      -0.49479791      -1.33505857      -1.17824554      -1.29181528
O       -0.16417158       8.63470845       9.16724969       0.81069058       0.18372654       0.27577099       1.12106967       0.34709960       0.02976847
H        6.35385964       8.03877575      16.28380010      -0.13779830      -0.01347226      -0.00559195      -0.15850788       0.05088644      -0.31371391
H       -2.43290731       7.61930310      11.35980623      -0.01015748      -0.28267020       0.03892630       1.37141049       1.05495405      -0.35929498
H       -1.80751938       9.32596898      11.23933422      -0.11240870      -0.07040199      -0.26931509      -0.52005070       0.72364402      -0.06125305
H       -0.68492135       8.15339966      11.68315758      -0.10359425      -0.42888369       0.11839327       0.14667676      -0.39152151       0.03908580
C      -10.24401184       0.65816005      20.60106440      -0.07846383       0.24129752      -0.41003250      -4.02791834       0.49117637       2.10598946
C      -10.79723324       2.05301416      21.02473432       0.35104456      -0.37791650       0.26624127       0.30069548      -1.19624245      -0.46226382
O      -11.98936378      21.41756030      21.35003094       0.84796452      -1.34104795      -0.27117137       0.55048412      -0.03671992       0.11161049
O       -9.87307312       2.97896696      20.87746139      -0.21943239      -0.53939135      -0.21965583      -0.31566954       1.18584979       0.18803157
H       17.37497948       7.14595124      26.20480796       0.13403859       0.05968653      -0.11672266       0.31546554      -0.14903176      -0.22100899
H      -10.52120690      19.75441359      19.57625300       0.07442989       0.29454056       0.28567037       0.15477408      -0.54331160      -1.28318012
H      -10.84278704      -0.12915274      21.15312330       0.16580952       0.08504396      -0.07136397       0.46494287       0.72330284      -0.67479032
H       -9.24891236       0.49214814      20.81705888      -0.16860102       0.20937987       0.02266195       2.38564658       0.05598724       0.19400756
C        4.14424480      10.92984865       4.04612769       0.25835841       0.03809091       0.18292833       1.58487546      -0.73254591       0.32593912
C        4.77043442      12.27637941       4.31299175      -0.41503027      -0.14397010      -0.27124913       1.76721561      -0.01274121      -0.99562514
O        4.04686064      13.08246851      24.29048498      -0.50653001       0.46435160      -0.67204971       0.75473875       0.20715290      -0.43010730
O        5.88564053      12.64329785       3.83532583      -0.19206155       0.94480247       0.43349023      -2.39938307      -0.85384345       0.81788749
H        8.82243464      14.43851126      -4.71962927       0.19119861      -0.02387257      -0.10838620      -0.38304895      -0.63226724       0.04819229
H        4.80190109      10.13908978       4.56350072       0.29785277      -0.19031460       0.02454198      -0.98904097       1.03900099      -0.31746352
H        4.21530833      10.59165560      22.13509326       0.29892476      -0.24796686       0.05526830      -0.27639368       0.57701027       0.51675653
H        3.13213864      10.91004308       4.43795430       0.02219863      -0.07018141      -0.21997565      -0.03706862      -0.14890730      -0.05227825
C        1.27581505      29.30749423      21.37902450      -0.24747792      -0.09661598       0.29076454      -1.67997456       0.01449844       0.73708570
C        2.09058992      28.32290413      20.65303784       1.33157348       0.89550328       0.47519723       2.99961376      -0.89715040       1.92638969
O        3.25103320      27.99644582      21.12107888       0.47422979      -0.03466357      -0.03903488      -2.06977725       0.16565663      -1.79164159
O        1.44167395      27.80724501      19.66511220      -0.13990132      -0.00268931       0.21688930       0.23354256      -1.65938461      -1.65170908
H       -2.28730727      13.90067406      18.21744466      -0.40437973      -0.17127283      -0.00902574       0.72624290      -0.12078634      -0.76616836
H        1.43400570      30.32611600      21.05277798      -0.15729650       0.28131820      -0.04840915      -0.06808528       0.51768768      -0.30122536
H        1.35635475      29.25914670      22.47774911      -0.20231492      -0.06895492       0.18731627       0.31769365      -0.05635858      -0.33629161
H        0.26024196      28.96034904      21.12833375      -0.20602018       0.28115368       0.32158441      -0.18955362       0.83650053       0.17697373
C        5.18870238      -3.81250080       9.98203966       0.87611743      -0.13043946      -0.96309868      -0.52957797      -0.82709497       1.22056723
N        5.66637587      -2.46052810       9.77868507       0.09879779      -0.04065076      -0.29481770       0.52535260      -0.35503972      -1.37663174
C        5.27016647      -1.39704444      10.56102673       0.69376069       0.28195620       0.01925938       0.82083285      -0.20378338       0.06582624
C        6.39910723      -0.62461589      10.62432805       0.19081289       0.39566463       0.32274539       0.23365372       1.77265525       1.43630159
N        7.48457766      -1.17747173      10.00572874      -0.67525481       0.23303866      -0.21667201      -0.92873883      -0.70620966      -2.08801627
C        6.94278012      -2.21940629       9.31002736      -1.55592185      -0.14964998       0.95919797      -0.27355766       0.52096641       2.18948555
H        5.62845198      -4.53636859       9.34015159       0.12042216       0.03542921      -0.27882817       1.01209140      -0.32250345      -0.99669868
H        4.10661148      -3.91450546       9.74920104      -0.06961114      -0.15439157      -0.13031610       0.72425711       0.32953089       0.84903473
H        5.53202957      -4.15406824      11.00807640       0.03933659      -0.00784205       0.07941022      -0.86300355       0.37651989      -0.81978762
H        4.39939529      -1.43194649      11.19913807       0.08471899       0.12767004       0.03629731      -0.14304966       0.13902999      -0.19269459
H        6.50326763       0.35169185      11.09992308       0.13055780       0.08315907       0.03469181      -0.21659262      -0.30762970      -0.04242009
H        7.34292828      -2.72877038       8.46487003      -0.16736213      -0.00335536      -0.21619161       0.39905488      -0.35571805      -0.44388908
C       13.78117116      11.79608828      16.40195213      -0.41955714       0.53673074      -1.79462115       1.19493437      -1.04589021      -1.35674250
N       13.71035245      12.67671220      15.15484463       0.40102710       0.80591611      -0.75640414       2.22013116      -0.22800988       1.82478333
C       14.78347268      13.52293012      14.64477082      -0.25324989       0.22772971      -0.18809770      -3.89639091      -0.45676538      -1.70965552
C       14.02231853      14.40522636      13.79078898      -0.04303826       2.08157632       1.37999153       0.91933960      -1.20298398       3.13224077
N       12.66114881      14.25672617      13.96690615      -0.58830574       0.68740584       0.66744669       0.31924307      -0.46234637      -1.08256638
C       12.54285796      13.16971848      14.70574210      -1.46579047       0.01482110      -1.43697718      -1.77635300      -0.24378288       1.33499610
H       14.48975033      -6.99608962      17.10928366       0.05715571      -0.07853066       0.35472788       1.18528795       0.95329261       0.17101420
H       14.18106423      -8.42202713      16.18584451       0.14861687      -0.04689618       0.08189249      -1.20710528       1.55916381      -0.05843342
H       12.88415792      11.83724139      16.99867731       0.14492422       0.13454050      -0.19205694      -1.00901043      -0.33823898      -0.48243305
H       15.80627147      13.20534680      14.68477302       0.28241539       0.13051329       0.00892229       0.29014713       0.03741923       0.14476179
H       14.37535615      15.25485914      13.30122851      -0.16186565      -0.12528943       0.05756899       0.83442044       1.08982491      -0.98733544
H       11.59346820      12.75656290      15.13261909      -0.00244962      -0.13879746       0.22068374       0.70224261       0.47053063      -0.63997489
C       26.64049270       8.62545497       9.46564011       1.28196547       0.60038218      -0.35860065       0.76479900      -0.20491251       0.76625371
N       26.34299724       8.30779047      10.90710048      -0.31788429       0.13334935      -0.22185870      -0.38838577       0.22257908      -0.39356434
C       27.32020730       8.10709489      11.87957286      -0.14043960      -0.58777871       1.26709570       0.57485127      -0.00473695      -0.59941798
C       26.78753195       8.32078983      13.10791440       0.08819873      -0.10523366       0.83325204      -3.75320101       0.53376591      -1.32855177
N       25.34414864       8.63452820      12.92725438       0.17257901      -0.56777208       0.13976754       1.87717128      -0.55535012      -1.42913437
C       25.17255266       8.60199602      11.57657525       0.31735432      -0.30607329       0.16682188       1.65558589      -0.17707649       1.96378410
H       26.92229118       9.69282436       9.36509194      -0.06342438       0.27452338      -0.08997559       0.47270066      -0.43298540       0.14653969
H       25.77440659       8.53697335       8.82681690      -0.23192775       0.12621057      -0.02897382      -0.68127847      -0.45644748       0.06163056
H       27.41665127       7.89980208       9.11394112       0.09618217       0.11130080      -0.13506370      -0.33736429       0.79715914       0.27809697
H       28.31347371       7.81635952      11.57226854      -0.00860016      -0.16843186      -0.16954330       0.07538855      -0.07480482      -0.01052538
H       27.13953680       8.30768736      14.10156435      -0.19596444      -0.11114409      -0.03105514       0.62198675      -0.15678275       0.67875528
H       24.26435546       8.80549010      11.07692078      -0.16319215      -0.09492414      -0.03880201      -0.87172258       0.19534008      -0.45182011
C        0.20957890      22.55663330       7.12887263       0.34241781      -0.57787596       0.58876469       1.24167085       0.66890955       2.22577882
N        1.23512172      21.95957598       8.05106175       0.29974376      -1.17342380       0.81381097      -0.16570759       1.03298521      -1.83419061
C        1.98583408      20.86214298       7.71505645       0.01246718       0.08405126       0.22749857       0.29455075      -1.43447852      -0.83925265
C        2.62623846      20.38648258       8.82495216      -0.71016881      -0.14761899       0.10873898      -0.39300770       1.41666889       2.37167740
N        2.31089029      21.39517110       9.91877034       0.40456679      -1.89196866       0.18331173       1.92383802      -3.17404866      -1.66083717
C        1.60119357      22.27629683       9.29696539      -0.46195387      -1.15182645       0.04028423      -2.20773840       2.38697433       2.16123486
H       -0.06773604      23.58945878       7.30364103       0.16698690       0.23491042      -0.05835778       0.88239390       0.80915141       0.32374969
H       -0.70478502      22.11246300       7.32654519      -0.13545520       0.36593170       0.11451998      -1.91521573      -1.72336721       0.31341246
H        0.51042081      22.40588183       6.14846246      -0.05714467       0.10443064      -0.21568343       0.65016139      -0.26135540      -1.96246409
H        2.04668937      20.55872491       6.66622377       0.01014948      -0.36246111      -0.14914067      -0.04536100      -0.02388398       0.46257764
H        3.18501123      19.45438210       9.06337100       0.16049131      -0.08091991       0.04580616      -0.58361316       0.97190708      -0.38922024
H        1.21383043      23.16368318       9.85280101      -0.14672699       0.01488166      -0.44364898       0.13677093      -0.55374587      -0.81887430
C       22.96874629      12.62420771      12.14782110       1.00034054      -0.21400001       0.14120055      -0.11030698      -0.45765942       0.12311968
N       21.51916995      12.30180639      11.97846773       0.04007275      -0.30549622       0.57124918       1.64955342      -0.11690031      -1.45991850
C       21.10380513      11.36076611      11.01102200       0.32674036      -0.17573591       1.17309669      -1.31015718      -0.21031803       1.76353121
C       19.71801621      11.42786585      11.05175677      -1.00933101       0.28826739       0.37597027      -0.65765691       1.07940257       0.62632465
N       19.33524915      12.46236578      11.94882128      -0.14183061       0.82799892      -0.01994523      -0.51726681      -0.19360352      -1.12325156
C       20.44556339      13.06406122      12.34751097       0.97118904      -1.10402911      -0.03242268       0.88092279      -0.15908766       1.00200450
H       23.25732745      13.09474163      11.21715010      -0.09288625      -0.12146893      -0.19838582       0.24922848       0.23584759      -0.15599518
H       23.67635633      11.74129651      12.28146577       0.14092046       0.22456388      -0.34303737      -1.28906679       0.78259009      -0.03023654
H       23.07289958      13.32140172      12.97590018      -0.09906352       0.01516532      -0.28678593       0.14398640       0.00375263       0.09206297
H       21.75838913      10.56990358      10.68041496      -0.06917072      -0.06554089       0.32066371       0.22783256       0.08053008      -0.25359267
H       18.87299152      10.94864794      10.52259619      -0.05436543      -0.06689309       0.02312408       1.10885978      -0.09397328       0.13492447
H       20.60583142      14.09165755      12.80141849       0.05247227      -0.10772794       0.02247530      -0.58845806      -1.48864150      -0.56520855
C       11.98999274      14.89222674      10.12441951       0.09501551       0.06764695      -1.24642669      -0.84418994       1.09369469      -1.11927152