640
Lattice="19.152215 0.0 0.0 0.0 19.152215 0.0 0.0 0.0 19.152215" Properties=species:S:1:pos:R:3:momenta:R:3:forces:R:3 energy=-80131.03125 stress="-0.013796097598969936 -0.001425940659828484 -0.003687938442453742 -0.001425940659828484 -0.013235092163085938 0.0014241939643397927 -0.003687938442453742 0.0014241939643397927 -0.016937576234340668" pbc="T T T"
C       17.27672807       3.50799213      11.42984986       0.33932808       0.80344034      -1.78563128       0.58294016      -1.40328693      -1.16073358
C       17.13080926       4.92116213      11.08653228      -1.52967946       0.49965243      -0.61728249      -0.73541021       2.94950914      -0.64465594
O       16.35189999       5.63327910      11.76012591      -0.42328160      -0.53504711       0.96943465       0.65285176      -0.11572671      -0.17972323
O       17.82224886       5.46566035      10.05238383       0.10036799      -0.11763502       0.34545788      -0.06399441      -0.76430064       0.44939637
H       26.61601824       5.54269820       8.70153944      -0.18693874      -0.13514267      -0.09783607       0.22515732       0.20891546      -0.71724623
H       17.16359492       3.49438180      12.48771209      -0.07898457       0.15335777       0.13684395      -0.20912202      -0.46192968       1.09272909
H       18.27835440       3.09573859      11.18708473      -0.16021304      -0.11760897      -0.00453950      -0.50331855       0.10441535      -0.08739069
H       16.46843079       2.87813597      10.99601758       0.06590744      -0.18461387      -0.44754150       0.45464030       0.28678346       0.07171172
C       35.35449531      -4.77732235       8.47799053       1.27333023       0.35819373       0.74257890       0.85102564      -1.16607428       1.06591260
C       36.60450253      -4.07475871       8.95848841      -0.05708285       0.80397654      -0.49665770      -0.83584070       0.99826473       0.71979868
O       36.75299361      -2.87441338       8.68579180      -0.14371998       0.45613599      -1.47367922       0.60518634      -0.64700323       0.22696404
O       37.45425440      -4.72676177       9.78653897      -0.22723641       0.13123799       0.49020504      -0.38429809      -0.53571099      -0.02855262
H       37.06462007      -5.60535007      10.25921697      -0.23225802       0.01898193       0.27466429       0.01838532       0.73735869      -0.21923336
H       34.93052384      -4.15529732       7.70765824       0.08637459       0.14647418      -0.19785611       0.03144432      -0.28271577      -0.96716452
H       34.56606031      -4.76115202       9.25756554       0.02440204       0.11250773       0.08881344       0.56902403      -0.30513272       0.14203769
H       35.69386453      -5.83908082       8.30512267       0.00216636       0.14666925      -0.25266566      -1.08194971       0.75241864      -0.41730100
C        9.61766182      -7.28092576      -4.08998956      -0.02481084      -0.84431008      -0.00272458       1.12420666       0.92266428       0.16760325
C        8.97298726      -6.10553926      -3.26235890       0.04389710       0.32758530       0.24383783      -0.18496752      -2.15664291      -1.32180870
O        9.91376438      -5.38998008      -2.73871846      -0.53168276      -0.30491335      -1.38146534      -0.21485412       1.35314715       1.24835467
O        7.73350314      -5.94188505      -3.19927241       0.50337494       0.83732891       0.02093339       0.82008523       0.08271992       0.07101822
H       -4.95793531       3.89970016      -2.37187357       0.22031922       0.05984649       0.19027628       0.55540872       0.73934561      -0.56229097
H        9.49502038      -6.96110800      -5.14277162       0.12127940      -0.09481568       0.36279649       0.35851851      -0.24876294       0.10072365
H        9.05699762      -8.19810621      -3.98804545      -0.32315529       0.03198097       0.29615156      -0.38408563      -0.43137506       0.29155028
H       10.74706344      -7.45540246      -3.84982614      -0.09268361       0.09548576      -0.21194388      -2.04703116       0.45824325      -0.36953893
C       -3.30088910       5.17129657      -4.23161103       0.07022288       0.25654202       1.02376415       0.51431960       3.43693733      -0.39602387
C       -3.04412155       5.47221446      -2.76709691      -0.13558283      -0.67145058      -0.16978255       0.76632208      -1.92514777       1.05151248
O       -3.70199935       4.64733718      -1.96981677      -0.03843635       0.05316894       0.08195924       0.93944156       1.35221267      -0.14690840
O       -2.09007136       6.24449868      -2.35144269      -0.73772416       0.38732878      -0.53806243      -1.17444253      -0.91138291      -0.20019382
H        8.58403477       2.50338121     -17.60174554      -0.38018996      -0.15147520      -0.32271754       0.63334006      -0.06182137      -0.01788849
H       -4.28657071       5.68946549      -4.46566170       0.03935735       0.06718982       0.16919778       0.99614221      -1.02806580      -0.29603899
H       -3.29194423     -15.03281404      -4.35936224      -0.11158101      -0.18401568      -0.07766585      -0.57651740      -1.16818523      -0.39804155
H       -2.48867949     -13.52746301      -4.90498587      -0.21103520       0.38897360       0.14529690      -1.18610322      -0.45055103       0.81931484
C       18.31150178      18.19097784      19.45448932      -1.13904588      -0.42262199       0.35480190       0.40730402      -0.39641380      -1.47224069
C       18.37398851      16.67202663      19.75214535      -0.97246245       0.90853707      -0.00149281      -0.74136531       0.42868912       0.54410315
O       17.45108060      16.16588490      20.44227134       0.52412796       1.01133693      -1.28165194       1.09499454      -0.06300986      -0.67926323
O       19.42595980      16.05771708      19.20458873       0.70721994      -1.22028704      -0.81465887      -0.55238050       1.22010601       0.17648441
H       18.48373540      34.46929502      24.28716445      -0.08559149      -0.10048976       0.21968075       0.10618708      -0.24904859      -0.07113440
H       18.14198810      18.33252352      18.34987975      -0.08692011      -0.15337621      -0.12068983      -0.04992611      -0.26476422       0.71782267
H       19.28493765      18.66065062      19.60966518      -0.00083241       0.06513017      -0.08651324       0.22781442      -0.02856588       0.25466031
H       17.54681709      18.77505538      19.96782521       0.04428702      -0.09258898      -0.06773991      -0.15319067      -0.44348285       0.34059590
C       21.68260030      14.20089984       8.32516873      -0.37603140       0.09343867       0.08220837      -0.87664473      -0.75819349      -0.56089193
C       22.30318818      12.87723448       7.97095241      -0.19153572       0.30090370       0.41358646       1.87028766      -0.00326014       0.18688208
O       23.38642106      12.79449190       7.34053242      -0.39312286       0.30663906      -0.14767626      -1.73031080      -0.51090777       0.81690001
O       21.66658462      11.79490012       8.55358197       0.24423172      -0.23090377       0.09638797       0.09898710       1.20890915      -0.38836217
H       22.28374537      11.04687404       8.49102018       0.25232477       0.10358812       0.14491570       0.30631840      -0.94034684      -0.24825087
H       22.34624089      14.95564720       7.88012798       0.26719057       0.03055746       0.24572976      -0.38181415       0.12575449       0.23322356
H       21.59688318      14.29725774       9.43799593       0.09602773       0.18512966      -0.25746181      -0.17973426       0.13945678      -0.88907516
H       20.66796053      14.15213536       7.79581589      -0.00131651      -0.13412507      -0.08468253       0.88669372       0.63869125       0.92887568
C       19.70599777      11.42634273       0.77613774      -0.10031290      -1.06020787       0.20797847       2.92221689      -1.29653847      -0.03405601
C       19.77906725      12.78489599       0.07670880       0.76956254       1.33227304       0.38973380       1.01267529      -0.13555622      -0.16917866
O       19.98619459      13.77917657       0.84735584      -0.31423733      -0.14427129      -0.88670021      -0.15677027       0.72556806       0.57799733
O       19.78057527      12.87284199      -1.19997005      -0.61870399      -0.81233816       0.32821281      -0.41291824      -0.03222626       0.48010266
H       18.94202601      13.98120993      -2.05954801       0.50173738      -0.07848746       0.07172124      -0.26410568       0.08791232      -0.69620848
H       20.06062007      11.36266800       1.85667570      -0.26543376       0.07776387       0.23702128      -0.35043788       0.63617814      -1.34448743
H       20.34624879      10.65378467       0.20034621       0.51455207       0.14601075      -0.06847116      -0.59363788       1.19700193       0.69051647
H       18.77245230      10.95275041       0.74302949       0.07901403       0.12538177       0.07162215      -2.02570319      -0.42628315      -0.10424164
C        1.25344505      18.82208379       3.30000189       0.38846205       0.79616020      -0.57359413       0.77857620       0.15894079       1.18501830
C        1.38552645      20.31473263       3.17002100       0.87440833      -0.09223193      -0.26964708      -0.38863274       0.76972675      -3.05426264
O        1.49705152      20.89054350       4.35840627      -0.20453364      -0.19725524       0.21401588       0.69565439       0.50502974       1.12085605
O       20.52023062      20.94913873       2.06363364       1.33630441       0.95970406      -0.02435875       0.19951501      -1.45974791       2.37760401
H      -10.97212851      19.75911036      15.93234635      -0.39809468      -0.00036624       0.08176995      -0.22411186       0.13216823      -0.15488678
H        2.14528605      18.29479926       2.97305884       0.05347979       0.31459464      -0.02556631       0.62453038       0.08772033      -0.23744190
H        0.46287360      18.39972345       2.73307177       0.08115337       0.46043257       0.15153643      -1.14498901      -0.22453441      -0.59141850
H        1.13889730      18.56288273       4.36950245      -0.13785432       0.17926351      -0.06184458      -0.18614376       0.02645139      -0.33245230
C       -9.07567388      -2.12257084      14.16588945      -0.94331577       0.00479453      -0.40275655       1.07797539       1.79800177       0.27099147
C       -9.80406357      -0.76790635      14.41897657       0.00857116       0.05129397       1.52394056       0.32744056       1.67072058      -0.53725231
O      -11.01298753      -0.77406995      14.85452695      -0.38211368      -1.17645519      -0.89189170       0.29327571      -0.22989756       0.27237803
O       -9.18581236      19.52057379      14.15123218      -0.93808826      -1.20395043       0.68888211      -0.79552901      -2.07770967       0.47422177
H       -4.88299706      21.51291703       7.03804621      -0.03875549      -0.00252781       0.14069022       0.72267550      -0.03168827       1.24946404
H       -9.17936266      -2.80444694      15.04297361      -0.13238757      -0.08571218      -0.11062848       0.25936413       0.31550676      -0.68272996
H       -8.00613347      -1.83976830      13.89220469      -0.11571349      -0.17142804      -0.10717303      -1.06189966      -0.88566220       0.76832771
H       -9.44573110      -2.56983211      13.25132869       0.22547427       0.07727108       0.07519582      -0.50978470      -0.39162037      -0.10621339
C       12.58268604       0.43506811       4.04085268       0.57704821      -0.21793313      -0.41624294       1.40359008      -0.02666491      -0.61920762
C       32.46004347       1.69497758       3.48708667       0.94569780       1.16569193       0.71247936       0.93089229      -1.11645997       0.57869369
O       33.63856733       1.40072106       2.84046731       0.77938300      -0.46046970      -0.41127086      -1.41626322      -0.19980526       0.61606681
O       12.95668555       2.84347895       3.70470430       0.26268537       0.02110701       1.35416157      -0.40752834       0.38582441       0.17651302
H       31.12520533       6.16157411       4.14529775      -0.13794242      -0.20932002       0.09367193       0.05582866       0.24475664      -1.21587467
H       13.06809237       0.01204997       4.97157966      -0.04127189      -0.11611834       0.05878772      -0.68094587       0.96427506      -0.55908942
H       12.77895736      -0.34490654       3.29517254       0.31938106       0.18868136      -0.24985603      -0.34199080      -0.09137017      -0.10396102
H       11.51372401       0.62481756       4.10808637       0.13475797      -0.12889032       0.05202301      -0.13703385      -0.00613603       0.38127241
C       22.62159541      18.56890368       7.12605587      -0.73812738      -0.40488005      -0.08985436      -1.84136021      -0.65449131       0.39678013
C       23.34747730      17.34424834       6.65338809      -0.17893491       1.17081111       0.59547901       0.61448443      -0.77005339      -0.77307582
O       23.37940805      16.93459327       5.45227841       0.07618101       0.32052203       0.54402985      -0.49692824       0.89711654       1.22283363
O       24.09297054      16.77183386       7.59892973       0.79745656      -0.38705179       0.01734406      -0.16830868       0.38502747      -0.66489321
H       24.87430303      -2.90508951       7.07977667      -0.01743418       0.28209838       0.14599429       0.06753379      -0.51761878       0.25324625
H       22.22177123      19.13811702       6.29008355       0.17576106       0.00868121       0.33005641      -0.53651464      -0.17577492      -0.36473408
H       23.35894443      19.22895426       7.51821459      -0.37889774       0.03805738      -0.14342071       0.80855131       0.63604975       0.99203622
H       21.79916964      18.35592235       7.92194844       0.02571055       0.07593342      -0.08931074       1.39925349       0.26219174      -1.23891711
C       -6.19825250      11.09613339      24.99643863      -0.22655246      -0.34645194       0.21496370       1.67507768      -0.34572428      -0.16409957
C       -5.68143408      11.03877409      26.42733093      -0.45999978       0.54999942       0.05504558       0.02862477       0.92015696      -0.98349524
O       -5.96082373      11.96424933       8.05230928       1.10430786      -0.50792510       0.77538888       0.07934088       0.06457025       0.58570468
O       -4.96362613       9.98262093       7.51577871       0.13282771       0.33691324      -0.18521811       0.62779629      -1.19252264       0.23228699
H       -4.14309615       2.28936101      21.85315111       0.18523619       0.19069912      -0.28293669       0.29763648      -0.19271129      -0.40692863
H       -5.40929607      11.47676330      24.23433682      -0.24668921       0.32854217       0.35867355      -1.29718077      -0.09150629       1.34314704
H       -7.07423330      11.70549380      25.16291075       0.06201602      -0.03126391      -0.03480141      -0.48766887       0.36625519      -1.11835825
H       -6.37885264      10.06299803      24.68904066       0.27525922       0.26253947       0.31109934      -0.49667841       0.11137238      -0.19701995
C       -2.05514692       9.98663763       8.47181846       0.51894122       0.87173981      -0.34782537       0.61028755       0.30593073       2.42520142
C       -1.13242004       8.80737306       8.78868555       0.16928170       0.40078519      -0.11560171      -2.68830252      -2.08742785       2.33736515
O       -1.60079020       7.87290160       9.61030628       0.11264972      -0.44608339      -0.27608187       0.34567910       2.45481682      -1.43878639
O        0.00566134       8.66083408       8.27656904       0.43382466       1.36350859       0.17675255       1.63881612       0.22616082      -1.03859186
H        6.90185334       9.03649725      15.38670900      -0.36043459      -0.13210229       0.05442592       0.38980144      -0.18446720       0.34820902
H       -2.70060271       9.64091746       7.67129197      -0.04173075      -0.17210195      -0.08178647      -0.37317565       0.44732970      -0.20450559
H       -1.47730117      10.90717110       8.22835821      -0.20731675       0.10500752       0.14732460      -0.24262178      -0.67628920      -0.29738456
H       -2.57572846      10.22350215       9.48128003      -0.06299103      -0.19705278       0.09671743       0.26629323      -0.45212051      -2.03958297
C       -8.42122074      -0.10322028      19.62231889       0.13855728       1.19750103       0.09634664      -0.28467974       2.12751889       0.38135749
C       -8.89032499       1.34266152      20.22277956       0.67146991       0.19986886       0.30905245      -0.80065519      -3.71501112      -1.92800188
O       -8.08734146      21.38932788      20.26815391       0.41504601       0.09845235      -1.14553226       1.05036306       2.16229749       0.50065559
O      -10.19377358       1.32553861      20.50716549      -1.71528644      -1.05420504       1.04857888       0.20723450       0.92018962       0.12708490
H       19.15159309       8.45176876      25.92234770       0.35525716      -0.09470082       0.07624095       0.14808601       0.06192482      -0.23459759
H       -8.65001807      18.91051311      18.54967781       0.04181784       0.08020669       0.16529109      -0.69871545       0.01188350       0.52030522
H       -8.90695450      -0.74006608      20.32467313      -0.02380840      -0.09172304       0.16638269      -0.52406740      -1.31893730      -0.06010914
H       -7.35632086      -0.26928368      19.66421210       0.03275746      -0.10642336      -0.03732221       0.52639294       0.36234421       0.40081853
C        5.07945567      14.91305581       1.28691201       0.23643445      -0.47909257      -0.57615115      -0.27368113       0.54605448       1.29054916
C        4.49588484      16.04632125       2.22818820      -0.30158212       0.16525561      -1.29121409      -0.73996532      -2.48509192      -1.31578398
O        3.95915453      15.40096026      22.47655199      -0.43229837      -0.44531577       1.17050754       0.23186330       3.01018953       1.14818144
O        4.37110145      17.23128435       1.91954949      -1.37149521       0.51524655       0.69148957       0.37875661      -0.74851167       0.94644451
H        9.44012762      14.55794923      -2.10415788       0.23157618       0.09780941      -0.06696481       0.46091568       0.20879048      -0.51898164
H        6.08751999      14.63538007       1.61613541      -0.09411706       0.00094816      -0.18944094       0.41350496       0.61172140      -0.44373348
H        4.94898199      15.18158805      19.40634250      -0.60158831      -0.13059161      -0.05322837       0.44770575       0.43421459      -0.73202610
H        4.59694386      13.93854760       1.38359448       0.06855451       0.12967027       0.10051090      -0.73585057       0.18951480       0.39739314
C        2.49981801      27.09811059      18.32713839      -0.13789571       0.52921092      -0.26652467       0.39155048       0.87370157      -1.02632248
C        3.25280016      25.77828857      18.33536498       0.78278595       0.43417984       0.64080591      -0.59447223      -0.40931177      -0.98338437
O        4.50387239      25.71419391      18.29887308       0.34605761      -0.11749679       0.02716589      -2.08765554      -0.52558893       0.40871686
O        2.32573096      24.72479218      18.28957263       0.34262387      -0.25942958       0.60850445       2.54154277       0.29020691       0.31482530
H        0.56390292      15.07055834      19.51274201       0.02255676       0.12429608      -0.11762935      -0.42832825      -0.75354707       0.36423886
H        1.94818805      27.17739388      19.26164665       0.20793920       0.05536777      -0.14444227       0.13989855       0.36529022       0.54542643
H        1.69370172      27.28594001      17.53934157       0.08907199      -0.10577752       0.26780788       0.97640377      -0.83905518       0.46302354
H        3.29168899      27.88023948      18.16797882      -0.23900176      -0.00161220       0.03654140      -0.89158499      -0.36368012       0.54665637
C        5.57480990       0.90970569      12.96818098       0.52207687      -1.29358199      -1.19004819      -0.08463490      -0.32549056      -1.44656444
N        6.20136164       0.64409412      11.59162842      -0.62503091      -0.03835765      -0.11311324       1.15944815      -0.62587011       2.32978630
C        5.65339209       0.83937118      10.36024152      -0.86773815       0.97897911       1.10129355      -0.02316947      -0.00932266      -0.47781301
C        6.63491931       0.49188623       9.45361358      -0.80559466       0.42520983       0.81504719       0.48500839      -0.61181897      -0.11338845
N        7.72940327      -0.03383361      10.13717600      -1.02034177       0.36445448       0.00642435       0.16352737       0.61597681      -0.87041074
C        7.49946058       0.11046682      11.41997592      -0.20031839       0.09377156      -0.09923954      -2.49727440       0.01266381       0.81333780
H        5.75234795       1.97548028      13.17234774      -0.06215868       0.05722319       0.08521738      -0.12759215      -0.33338016       0.35301229
H        6.07079586       0.24517725      13.72683361      -0.28953891      -0.02013741       0.04529372      -0.53453529       0.66912460      -0.64017028
H        4.46559681       0.73460713      12.86223196       0.21835877      -0.03034712       0.02911155       1.04404020      -0.04978471       0.34304309
H        4.58959614       1.02699050      10.25542215      -0.17153347      -0.08121380      -0.19942152       0.25727099       0.08565320      -0.03248825
H        6.72872437       0.58710912       8.37655383      -0.13471119      -0.04303747      -0.01034168      -0.41241646       0.01442829       0.10822088
H        7.99810480      -0.40025158      12.23863414      -0.12634565      -0.11419215       0.35535597       0.20705853       0.28235000       0.01457036
C       12.98831228      13.80143818      18.32486358       0.42895947       0.53549901      -0.49822648      -2.32776642      -0.02264759      -1.52310681
N       13.53148209      13.71968287      16.96228850       0.42054628       0.17573752      -0.64482457       0.28486425      -0.83217853       0.17764491
C       13.17903303      14.50945300      15.89259408      -0.06753743       0.17987691      -0.54517924      -0.21552621       0.75296980       0.65801734
C       13.77905393      13.88079703      14.83868894       0.37535204       0.80227788       0.08727016      -1.18639493       2.98018909      -5.35536003
N       14.39727117      12.76012038      15.15632629       0.42800991       1.41054211      -0.25594873       1.98696780      -2.12753367      -0.47108948
C       14.32957203      12.66039307      16.45373346       0.53859339       0.00159850      -0.48866533      -0.46245492       1.12399304       3.73608303
H       13.77956190      -5.44965477      18.99891016      -0.10665533      -0.05640553       0.02912396       1.38209629       0.67038643       1.45472813
H       12.36847076      -6.23824605      18.52342236      -0.20979152       0.11302220       0.11470361      -0.12811320       0.07829861      -0.16891542
H       12.28044097      14.69290433      18.38223238      -0.02860750       0.06372896       0.32538874       1.32681382      -0.91561031       0.23377320
H       12.59823615      15.44406370      16.01348147      -0.12070804      -0.14574361      -0.14381315       0.36349756      -0.89633787      -0.30042183
H       13.80304555      14.26847451      13.67956438      -0.10783109       0.26322158       0.20794426      -0.09538783      -0.90880293       3.21950555
H       14.92493839      12.13028490      17.26142363      -0.21257305      -0.38136388      -0.11951627      -0.70758730       0.34760904      -1.60346830
C       28.89323496       7.81885156      13.47078122      -0.15845842      -0.31824936      -1.41280448      -0.22242978      -0.16428360      -0.30030185
N       28.22102501       8.03183376      12.17692195      -0.41721263      -0.89557210       0.93894708       0.01972346       0.32910809       1.62052166
C       27.07759342       8.76909762      12.00202998       0.18374354       0.84091269       0.12355611      -0.37672836       0.87253231       1.21038711
C       26.80056169       8.72894487      10.66219146       0.26109800      -0.72662037      -0.44580764       0.37191224       0.32527572      -0.90738571
N       27.81441147       8.00384981      10.01405248      -0.69822460      -0.16486468      -0.88429565      -1.15102983      -0.34977102      -0.07759029
C       28.58177623       7.52306166      10.99562192       0.39752859       0.16749537      -0.48714872       0.23362902       0.87917125      -1.53619266
H       29.97633490       7.62089733      13.25018918       0.00379805      -0.11920578      -0.04443763      -0.83405805       0.46716619       0.70459944
H       28.41547198       6.91355606      13.83167856       0.36643885      -0.33176501      -0.17683901       0.33311409      -0.50538564       0.58760834
H       28.59287331       8.61332564      14.21351866      -0.57141296      -0.04526762       0.01390316       0.92048371      -0.51964837      -0.95806110
H       26.68997074       9.34326700      12.86634376      -0.24087819       0.39338844      -0.09989098       0.04584064      -0.40666783      -0.74946260
H       25.98979386       9.26724914      10.13159173      -0.28852723       0.21210228      -0.18703477       0.65220988      -0.57569253       0.19383457
H       29.49292739       6.97754348      10.83349593       0.05098067       0.00626070      -0.10393621       0.26250833      -0.33717924       0.03372878
C        0.55807290      24.15231919       7.25230656       0.37755602      -0.78267907      -0.28240477       0.02589977      -0.39955986       1.85937333
N        1.60481669      23.46657962       8.10566593       0.44673264      -0.38272333       0.40334716      -0.71360749       0.58572793      -0.85449713
C        2.29613430      22.26552448       7.83053364       0.41830411       0.66849444      -0.21844109       0.11393295       1.57084405       1.15291119
C        3.20393019      22.18241814       8.87969766      -0.47896446       0.62722885       0.13659200      -0.83289742       1.09129667       0.77987540
N        3.02237094      23.23858295       9.81899020       0.20717674       0.74287806       0.58144487       0.09587307      -0.00650027      -1.41983593
C        2.06778148      24.02625776       9.27768721      -0.49672209      -0.55846869       0.25921890      -0.03171258      -0.44238439      -0.16135794
H       -0.36448192      24.26165487       7.86612296      -0.18090636      -0.08085865       0.00236823       0.47719851       0.03555785      -0.39628619
H        0.34359157      23.62978387       6.35566866       0.21838255       0.21921714       0.02387756      -0.09804910      -1.29519761      -0.82742333
H        0.89612202      25.10110339       6.89088214       0.07492527       0.17452986       0.14743378       0.46246228       0.96263897       0.22372290
H        2.07902296      21.70898224       6.92536663      -0.09036443       0.10656049       0.07667083       0.15175281       0.01455736       0.18206757
H        4.03349843      21.53893684       9.05920366      -0.14830105      -0.16566250       0.09898699       0.26562005      -0.46474856      -0.32742357
H        1.68645716      25.02627511       9.63910535       0.27387889      -0.16040698      -0.17299716       0.55853844      -1.41667819      -0.35256845
C       18.76116317       9.03036327      12.43653618      -0.82370831       0.62039011       0.46615789       1.05637038      -0.78699279       0.17688930
N       18.02923004      10.26213158      12.11431129      -0.09316635      -0.38066524      -0.19062744       0.36975771      -0.00795364      -1.05338788
C       16.95915012      10.66756987      12.90295518       0.65400490      -0.76709335      -0.89185733      -0.04463967       3.11803627      -1.58019209
C       16.56636615      11.93627479      12.36213200       1.06343211       0.43404139      -0.31751090       2.95096040      -1.77356637      -0.89655048
N       17.48599265      12.28669647      11.28622082       0.18160897      -0.63133409      -0.18121966      -1.30323100      -1.03601098       0.78206748
C       18.28861835      11.21370022      11.11843400       0.95681516      -1.20065074       0.16370749      -0.50018072       0.25361434       2.02468824
H       19.61829665       8.63671222      11.74006418      -0.08032256       0.24156770       0.14207271      -1.60281837       1.30400455       0.97020191
H       18.01482360       8.23590472      12.50045302       0.43853956       0.12710117      -0.23867203      -0.04905703      -0.21826489      -0.14004949
H       19.11544044       9.19118993      13.47098749       0.11849295      -0.15112490      -0.29883130       0.30004805      -0.34354234      -0.31891799
H       16.72326341      10.31458982      13.90221064       0.35449957       0.30341825      -0.28092827       0.17623627      -0.50272363      -0.34406924
H       15.82405207      12.60137997      12.73727599       0.14523021       0.08851977      -0.05436307      -0.54167247       0.45840460       0.05294788
H       19.15170991      11.18742502      10.44121251      -0.01638411      -0.33890921      -0.09223942      -0.57527888      -0.29229787       0.33161220
C        5.60674428      12.46943903      10.88393400      -1.55337388       0.02506529       0.31583116       2.69213915      -0.40201023       1.57114601