640
Lattice="19.152215 0.0 0.0 0.0 19.152215 0.0 0.0 0.0 19.152215" Properties=species:S:1:pos:R:3:momenta:R:3:forces:R:3 energy=-80130.7265625 stress="-0.02017720602452755 0.0037627757992595434 -0.000786979275289923 0.0037627757992595434 -0.01539708487689495 -0.0007331852684728801 -0.000786979275289923 -0.0007331852684728801 -0.018705269321799278" pbc="T T T"
C       13.77513953       3.01372057       9.29698834      -0.63921427      -0.49847404      -0.48342385      -1.05724776      -0.35862160      -1.03439403
C       15.10541543       3.44405096       9.88302914       1.23915983       0.59912340      -1.69799895      -2.28796196      -1.48700261      -0.62697041
O       15.63483747       2.56097281      10.56868717       1.19629035      -0.18091300       0.00803203       1.66996944       0.71020490       0.31055015
O       15.45797521       4.64707063       9.51492376       1.12453517       0.58836816      -0.61286831       1.31539774       0.85484624       0.14381826
H       24.45103679       9.01646159      11.29186158       0.10851749      -0.15578150      -0.09404703       0.51633644       1.41984296      -1.40370560
H       12.84792307       3.33151819       9.78068973      -0.18342180      -0.15521694      -0.13689608       0.22018653      -0.30501911       1.32748675
H       13.75891292       1.90906832       9.06728492      -0.46327563       0.09700716       0.07718856       0.01084282       0.91932285       0.47549137
H       13.47239827       3.51953354       8.38899673       0.06665024      -0.06267205       0.44362842       0.80944544       0.18013114      -0.97127056
C       37.59785262      -6.07248895      10.77409685       0.49170097       0.56851793      -0.52299449      -4.86625290       0.33565772      -0.23281813
C       36.78025859      -5.49204740      11.95863058       0.37811019      -0.18875491       0.62159334       1.89872634      -0.40923679      -0.28380877
O       36.24661924      -4.39026335      11.87212407       1.30676357       0.70065406      -0.54564956      -0.56347823       0.20146775       0.05605397
O       36.81317416      -6.17616723      13.11501643      -0.22030258       0.28097731      -0.48886867       0.45032054      -0.76607156      -0.19075680
H       37.47762852      -7.01846980      13.07571095       0.08583719      -0.20084879       0.15164201      -0.60085821       0.63992578       0.35918233
H       38.58530942      -5.77665617      10.71050344       0.14820440       0.20416544       0.16628175       2.26911831       0.76839328       0.33710176
H       37.03994431      -5.58236475       9.93078563      -0.14999534       0.12651694      -0.31513932       0.78107065      -0.45253196       0.19721471
H       37.39206667      -7.14118180      10.67129809      -0.48564978      -0.06469214      -0.07643145       0.42363420      -0.07487600      -0.00843403
C        6.47352440      -2.74939898      -5.20061603       0.39986929       0.66349329      -1.25190266       1.38370812      -1.16335618       1.23042679
C        7.55234980      -1.95086283      -4.43924685      -1.38176800       0.19298748      -0.31020182      -1.60097957       0.73267257      -0.46256804
O        8.09397767      -1.19635343      -5.42104855      -0.12310108       0.41351746      -0.62433146       1.74354482       1.12253726       1.81338298
O        7.75220810      -1.79103403      -3.21475741      -0.55642977       1.23268788      -0.61385211      -0.20790404      -0.95502156      -1.74362671
H       -1.91979008       0.67336529      -1.90509594      -0.12383155      -0.17267128      -0.05129931      -0.44808352       0.86779785      -0.28935218
H        6.47357564      -2.41186685      -6.24690214      -0.23101983       0.19799121       0.09116332      -0.40912446      -0.05541644       0.34745964
H        5.52745823      -2.68715730      -4.65580028       0.04093837      -0.07389721       0.08115246      -0.19751310      -0.08303562      -0.31677502
H        6.84220941      -3.81210972      -5.20606268       0.10709120      -0.06407767       0.14582740      -0.51249397       0.56459463       0.00102739
C        0.39751305       0.51890988      -4.90411061      -0.01889624       0.74301927      -0.07300056       2.01773691       0.04495221      -3.64249182
C       -0.13288391       0.28686306      -3.57610635       0.19074698       0.45347626       0.21136843       1.53927016      -0.72410810       2.31585503
O        0.78030321       0.00977600      -2.67831379       0.34473990       0.14462545       0.54865095      -1.18929243      -0.01971781       0.06840336
O       -1.39066357       0.31290783      -3.39002224      -0.44056860       0.23186099       1.16211806      -0.14394182      -0.11465620       0.56111670
H       11.08228874       7.90463117     -19.64613377       0.18044559      -0.04752379      -0.07789096       0.44714093       0.17015940      -0.51300830
H        1.40305334       1.13414541      -5.03058695       0.09685127       0.18381731       0.11582883      -2.26081300      -0.82621574       0.78021300
H       -0.42027768     -18.25070421      -5.53610706       0.01595667       0.01777902       0.15778136       0.40285292       0.35856253      -0.11203137
H        0.70781301     -19.61000654      -5.44041873      -0.22011939       0.08731687       0.04872477      -0.51488566       0.87837040       1.06297207
C       16.89846153      15.24834053      22.44933341      -0.02751766       0.60095310      -0.28202971      -0.88499570       0.64382362      -1.66610050
C       16.37273596      15.20152570      20.97069900       0.44130246       0.15037317      -0.29497825       0.18535173      -1.67560554       0.55265152
O       16.38392918      16.28749903      20.31476139       1.33385496      -0.65705925      -0.42109617       0.04287320       0.52425623      -0.09690672
O       16.02106429      14.03786143      20.49251168      -0.15063178      -0.69708214       0.03138522       0.21425691       1.15633845       0.53777111
H       22.66485931      35.40643014      27.57112334      -0.27538027      -0.07511948      -0.03145486       0.04417560      -0.75616181       0.22491175
H       16.59668862      16.23227336      22.81559955      -0.41504415      -0.02056133       0.13717880       0.35853887       0.19960308       0.24525419
H       17.99581273      15.15903820      22.43120906       0.54822258       0.03198356       0.04707325      -0.31641862      -0.15039854       0.41278523
H       16.35631869      14.50600644      23.02363137       0.19552925      -0.03296331       0.11323949       0.37356514      -0.43321031       0.33410501
C       27.20995303       8.69591939       7.36706593      -0.10652221       0.42022900       0.29809712       0.45074448      -0.54959667       2.13429832
C       26.80420963       9.52360047       6.20904602       0.08885122      -0.48778706      -0.50922383      -0.65912807      -0.31338096       0.39966273
O       26.12246076       8.84528404       5.31366855       0.49892504       0.24517916       0.02640097       1.12856507       2.48838854       0.33840573
O       27.14420033      10.76753425       6.32680631       0.70380695       0.89327871      -0.96968839      -0.91055280      -1.15018284      -1.11989534
H       27.85260792      11.37983754       5.35285431      -0.09989162       0.09605322      -0.26559377       0.32232517       0.52551162      -0.94606006
H       26.94535406       9.20740051       8.34534974      -0.21868342      -0.01450878       0.00727555       0.24724714      -0.35194653      -0.99008781
H       28.32727796       8.56649118       7.39909488      -0.08959230      -0.09918594       0.30323444      -0.76871383       0.07690918      -0.13338487
H       26.70927451       7.71677754       7.35167432       0.33492423       0.06008338      -0.21398002       0.27280128       0.02813754      -0.08543046
C       17.16861874       9.57570142      -0.59906919       0.41323753       0.21448684       0.64817659       2.41194606      -0.26103204      -1.62889552
C       17.27626821      10.89777419       0.09491801       0.43515399      -0.99681657      -0.13150771       0.34836248       0.57801306      -0.23653054
O       16.41942310      11.83137858      -0.36797189      -0.70538501       0.25971062       0.27989459      -0.72282755      -0.73506707      -0.74060833
O       18.08693864      11.20106715       0.96012514      -0.63534687      -0.31054153      -0.14638080       0.55990374      -0.40786168       0.51492697
H       16.89196790      15.99020284      -0.32354307       0.11051014       0.27190059       0.24350953      -0.62168801      -0.09292885       1.44035447
H       18.10036276       8.94170905      -0.42599626      -0.28200345       0.28038309      -0.08983981      -1.15004694       0.85675776       0.22500363
H       17.16547719       9.68375490      -1.74028007      -0.04855907       0.17320846       0.17291886      -0.38272306       0.15363842       1.45578718
H       16.30074315       9.03698681      -0.30659963       0.10870823      -0.06702672      -0.21729137      -1.06078899      -0.55870903       0.29427934
C        0.52439582      22.31077936       2.52373744      -1.09642356      -0.11949995      -0.43167636      -2.03510451      -1.70034063      -0.66689765
C        1.44950698      21.78537806       3.54246331       0.28462888      -1.61101974      -0.27210995       0.38375074      -0.58189023       1.73893440
O        1.76387770      22.65847018       4.52531740      -0.30283928       0.88490322      -0.10061611       0.17295206       0.51461202       0.30931720
O       21.00533568      20.62860499       3.69923585       0.43759092      -0.36781057       0.08450821      -0.25923306       0.15729272      -0.84617871
H       -8.78235994      21.69717088      16.83872801       0.21859365       0.05478526       0.23308538      -0.05275840      -0.38084009      -0.64485753
H       -0.04694837      21.35194520       2.10931556      -0.04841986      -0.16629486      -0.01678730       1.00370157       2.36599398       0.39125431
H        1.07074982      22.87911505       1.79114505      -0.24305718      -0.02220487       0.01709648       0.44219539      -0.03599844      -0.96806848
H       -0.15200357      23.10217348       2.93416856       0.39244804       0.01435877       0.02806466       0.05323982      -0.79867315      -0.15529001
C      -11.06479027       1.78409494      13.62731035       0.40372541       0.05062155      -1.61296585      -1.51096094       2.74586892       2.25193596
C      -10.00614570       1.86401276      14.76180523       0.82306825      -0.48826906      -0.12467171      -0.16108418       0.20070459      -0.97514552
O       -9.64525200       3.00317689      15.17662973       1.62131807      -0.77589174      -0.11609030       0.19584328       0.29547465       0.58817053
O       -9.54957990      19.90858657      15.19867173       0.50982109       0.07088027       1.42362892      -0.13574493      -0.78775245      -0.27868652
H       -3.90467499      18.73520263       8.11359680       0.03043208       0.05582528      -0.09691482      -0.74778056       0.06650436       0.65653729
H      -10.82050381       1.10168232      12.87217048      -0.41633045      -0.01788992      -0.25281811       0.41842309      -1.06665778      -1.36632943
H      -11.31646191       2.85394776      13.22329588       0.10484484       0.05496726      -0.31410515       0.58816528      -2.16535592       0.61967617
H      -11.96369398       1.38106174      14.21299318       0.00670283       0.26035937       0.08749320       0.72622752       0.49203646      -1.17113817
C       19.74798247      -1.64294495       1.83754762       0.65454317      -0.57631425      -0.27804305      -0.71397722       1.24140131      -0.03805876
C       39.36457230      -1.32593311       0.40732805      -0.83150443       0.84384007       0.18154177      -1.05596995      -1.16955578      -0.12415421
O       38.59016522      -0.35369489      -0.13496426      -0.58489847      -0.09771625       0.00342104       1.38071108      -0.67876709      -1.20868659
O       21.01905226      -2.01657777      -0.26230238      -0.76369984      -0.18355765       0.26048180      -0.53619063       0.86356676       1.10954475
H       33.48123378       9.34833428       6.33910033      -0.17666697       0.18147828      -0.00158065      -0.34247592       0.04111195      -0.25408432
H       19.51107656      -0.67743525       2.36626319      -0.26581204      -0.16319339      -0.37924768       0.61685514      -0.60755825      -0.24762499
H       20.45482213      -2.23944605       2.38657807      -0.10337421      -0.02080091       0.04266691       0.57680625      -0.19520032       0.30917865
H       18.76784148      -2.16316394       1.86097379       0.05684676       0.22888390      -0.07298599       0.38058785      -0.00492936      -0.49248129
C       20.82322019      13.96367876       1.41279202      -0.06811747      -0.27118146      -0.92493498       0.74161226      -1.32250607      -0.13420731
C       21.13860776      13.99637414       2.88135372      -1.43323334       0.80122552      -0.61991775       1.86265159      -0.14953922       0.58918095
O       20.56338972      13.28601962       3.72124290       0.05468613       0.72058830       2.05169203      -0.09371516       0.11298686      -0.15597451
O       22.27229867      14.69150116       3.18827874       0.79186034       0.88381552       0.04836178      -1.48741412      -0.71305215      -0.30051529
H       22.65196738      -4.82921950       4.18048654       0.16697959       0.01660961       0.02503507      -0.24873155       0.57639909      -0.02504016
H       21.63215319      13.29067403       0.93209412       0.26118072       0.07508088       0.11249054      -1.14662874       1.21624660       0.43274164
H       20.76072885      14.94044722       0.98402108      -0.38102282      -0.35488759      -0.13786138       0.54512584       0.84218705      -0.46291381
H       19.85397132      13.51248145       1.24064363      -0.18535860       0.15875990      -0.03913972      -0.32781270      -0.54580456       0.11428872
C       -8.04178666      13.78456898      26.86396554      -0.22517815       1.44194571       0.03440857       2.06100607       0.43036425      -0.29859552
C       -7.33703699      12.61110727      27.50598080       0.02300015       0.53529160      -0.68902085       0.72746843      -0.61428058      -0.08707249
O       -7.44019353      11.43595198       8.03375131      -0.62931442       1.43110563       1.26086321      -0.78464520      -0.49166083      -0.40116209
O       -6.50361099      12.98175844       9.33459183      -0.43594805      -0.57205882      -0.30784380      -0.47318140       2.32454920       0.10257712
H        0.56355802      -0.37904955      17.95380126      -0.23698490      -0.22019148       0.09651893      -0.67013025       1.03112936       0.37415865
H       -7.48742033      14.68131132      27.27225205      -0.05925037      -0.16146330      -0.20905965      -1.16071022      -0.49841344      -0.42374724
H       -9.08093821      13.69630882      27.09920388       0.20880742      -0.08303897       0.40492740      -0.85367495       0.44892615       0.40542004
H       -7.93771059      13.74728028      25.75418588      -0.28591116      -0.02791482       0.11444958       0.01682284      -0.19352725       0.69260418
C       -2.75079854       5.95142554       6.38043816       0.47169621      -0.93944167       0.79967783      -0.16333723       0.43141404      -0.39914662
C       -1.61648500       6.06019366       7.35122347      -0.41138493      -0.22699234      -0.72875728       0.48366261      -2.03893042       1.68647492
O       -1.54991771       5.08269559       8.26282617      -0.47563473       0.25937658       0.11493501      -0.24123421       1.36569774      -0.73278701
O       -0.73043559       6.96176197       7.27495120      -0.42356266      -0.09918144      -1.03448063      -0.25442010       0.37583992      -0.21958609
H        5.25899263       7.30034693      14.22927737       0.32421430      -0.13094637       0.01131827      -0.64665359       0.37778080      -0.05762456
H       -2.30093720       6.11875519       5.36723657      -0.12572467      -0.06966500       0.08988531      -0.57624650      -0.45124564       0.45105231
H       -3.41034049       6.84200926       6.55643905      -0.16606433      -0.32850400      -0.25867770       0.05394815      -0.83024120      -0.21489637
H       -3.27758230       4.95079936       6.49206302      -0.24644796       0.02550279       0.05950662       0.41466874       1.35970354      -0.30675906
C       -5.81533183       9.57021712      20.32556522       0.48303403      -0.72484250       0.23467893       1.14555633      -0.79892558      -0.15152973
C       -7.17488955       8.95447373      20.07544969      -0.49641370      -0.52226422       0.64195455       2.73867583       2.07794070      -0.99800229
O       -8.05975380      28.39874945      20.84627097      -0.85401752      -0.78753668       1.44215540      -2.39901686      -1.02689779       0.31852987
O       -7.16686246       8.34682496      18.86146599       0.24439726       0.40875076       0.56313643      -1.38114333      -0.49086797       0.96387190
H       18.61059930       7.70156555      24.88735256       0.22743496       0.07282828       0.04597359       0.10877837      -0.42113480       0.45939210
H       -5.64005465      29.66893463      19.75821818      -0.18755753       0.06860383      -0.09674398      -0.24790514      -0.52249229       0.62922955
H       -5.10756503       8.84207989      19.90561801      -0.06267936      -0.08401497       0.06945668       0.31092665       0.14850613       0.00923699
H       -5.59421170       9.63930139      21.41471401       0.01569726       0.08882269      -0.29763644      -0.30260202       0.39256769      -0.59797776
C        3.27224819       9.10657065       5.87732758      -0.10455072      -0.91126137      -0.11009419       1.07741261      -0.66551173      -1.96313238
C        2.49280111      10.33468198       5.43171490       0.50119480       0.07338792       0.48771440       1.85449636      -0.86516958      -0.04498351
O        2.80855629      10.81376580      23.32875847       0.08960362      -0.42327205      -0.53125773       0.52889073      -1.54504633       0.73188674
O        1.70013021      10.86932159       6.15945484       0.67367010       0.01064733       0.27632942      -1.19569254       0.96454656       0.60962510
H        8.58531316      18.68517426      -4.88296940       0.08569324      -0.01557694      -0.22095387       0.23245174      -0.21220440      -0.65157270
H        3.04280917       8.28523851       5.13657352      -0.05249024       0.21372648       0.25592147       0.36114287       0.48501357       0.73643327
H        3.00387647       8.80944183      26.00863263      -0.20880932      -0.17259492       0.18133155      -1.00445378      -0.26656479       0.99191785
H        4.39298676       9.17769067       5.97102607       0.05441947      -0.00143793      -0.09298631      -0.74340260       0.57238317      -0.76209909
C        2.46984003      29.66608967      19.48488347       0.33849677       0.07482013       0.75412425      -1.93527210       0.04881907      -1.77033579
C        2.42205436      28.20820390      19.10393181      -0.86028644      -1.05126644       0.30112542      -2.00071716      -1.20510530       0.20180094
O        3.32094900      27.39376951      19.14865647      -0.22129377      -1.11862881       1.28222668       2.11941791       0.30668488      -0.44926503
O        1.17115201      27.72591764      18.86135118      -0.70078069      -0.44236114      -0.70383993      -0.57915425       2.18512630      -0.44482580
H       -2.66420830      12.64570784      19.32589072      -0.01032567      -0.04269000       0.08175093       0.09769902       0.36720723       0.53456926
H        3.47686485      29.99475925      19.60501797      -0.27859279      -0.16546712       0.11018041       0.76954949       0.39187676       0.27118325
H        1.84305045      29.72600454      20.37224206      -0.19264335      -0.05366477       0.17328689       0.09440340       0.38530910       0.52211624
H        1.88615091      30.29571224      18.71133992       0.03741473      -0.22579562      -0.20041665       0.98914897      -0.90047395       0.88568985
C        3.42574994       0.61025285      12.42226702      -0.93422732      -0.07990587      -0.43041360      -2.67216611       2.43242431      -2.22523880
N        4.24890882       0.30386780      11.27718041      -0.54632171      -0.12950532       0.06314778       1.51666915       0.20378113      -1.02700889
C        5.22115098       1.13701781      10.73316858      -0.27171761      -0.42136178      -1.00764435       0.49140486       1.94295120       0.78235066
C        6.28060557       0.35778691      10.37759090      -0.14518603      -0.31439603      -0.64842427      -0.01241842       0.17404407      -1.30613518
N        5.98187859      -1.00570106      10.44506130      -0.36534448       0.32465845      -0.00972011      -1.20088434       1.65205538       1.12852848
C        4.75025130      -0.93848075      11.01936746       0.32274659       0.46064448       0.27007849       1.44435787      -0.92857230      -0.75717783
H        3.25463507       1.71389211      12.58608462       0.05422361      -0.35214493      -0.06490580       0.74419707      -0.80225039      -0.33433488
H        3.81805321       0.21227649      13.27110584       0.06692315       0.24033563      -0.00238975       1.09351873      -1.26280904       2.62886906
H        2.40787705       0.26939218      12.21173675       0.12176722       0.11751787      -0.72795341       0.05266547      -0.45384037       0.26517248
H        5.24257168       2.25313880      10.72563511      -0.06368959      -0.08070514      -0.28059242      -0.55196136      -1.01219130       0.18036768
H        7.16180529       0.81746120       9.94023882       0.00536930       0.03952916       0.12085654       0.25297415      -0.43501288      -0.03653654
H        4.22492446      -1.83202096      11.11313844      -0.10416788       0.01587009      -0.20375688      -1.34105527      -1.21816993       0.52865607
C       12.81429408      10.09241706      15.86104730      -1.03419754       0.27835604       0.51044477      -1.68486738       0.80481642      -0.06592840
N       14.14764146       9.73138361      15.61286955      -0.31354399      -0.09701753       0.47243682       2.37795305       1.93152738      -0.44230118
C       15.16621062      10.53783692      15.12005921       0.48933552      -0.53354169       0.33600821       1.27187264      -0.49609810      -0.79305249
C       16.32843835       9.73351163      15.15137214       0.23054449       0.20684126      -0.07360497      -0.52556717       1.39570522       0.35128307
N       16.03187950       8.51497258      15.69655862      -0.09550748      -0.13889566       0.57066266      -0.45588255      -0.61108136      -0.08732553
C       14.70774118       8.58849358      15.92834744      -0.43711086       0.33805012       0.03670964       0.99820960      -2.01081753       0.21007180
H       12.48841090      -9.24965991      16.93044718       0.02639281       0.04243597       0.12051745       0.18716130      -0.06218433      -1.38292229
H       12.22078547      -9.51605664      15.03429009      -0.27180954       0.00391920      -0.03723731      -0.34293431       0.19765472       1.00089216
H       12.82626116      11.17041335      15.67361062      -0.23609104       0.06995956       0.18705600      -0.62971419       0.15092388       0.22576678
H       15.04711819      11.46990501      14.58038828       0.01296532      -0.12914045      -0.00941987      -0.35507584      -0.04546982       0.29692677
H       17.36087859      10.08211521      14.96179522       0.02507528      -0.31467804       0.01367091      -1.07117891      -0.38484597       0.08949238
H       14.00949762       7.81411676      16.10444099      -0.20645171      -0.12724546      -0.10524396      -0.14999002      -1.20055902       0.60843867
C       27.28046498      11.89674432       9.85367469       0.03013028      -0.49924631      -0.43224574      -0.20680858       1.43629587      -0.18874249
N       27.62400798      13.20998625      10.42008217      -0.41968958      -1.18519860       0.32236257      -1.48219121       1.67229676      -0.15517151
C       26.84300913      14.38877268      10.28231439       0.51170353      -0.97496233      -0.57147457      -1.07856560      -0.56943214      -0.58663887
C       27.50547968      15.40772802      10.90886396      -0.40701908       0.21014096      -0.76999687       2.32162189      -0.65657789       0.40265167
N       28.64902553      14.86678035      11.55986628      -0.68637874      -0.10558230       1.41103228      -0.47321531      -0.79824048      -0.68537438
C       28.67559202      13.57359950      11.18296413      -1.47818139       0.17745401      -0.57656958       0.58692205       0.64832759       0.81696630
H       27.90929255      11.77855880       8.96398118      -0.23038860      -0.11605284      -0.07808214       0.05163429      -0.70076478       0.16316929
H       26.23450374      12.01343072       9.49909293      -0.08347226      -0.02915623       0.32697354       0.43149838      -0.62229061       0.46684277
H       27.42707402      11.18543140      10.66976380      -0.20792418      -0.00541379      -0.60894346      -0.16843757      -0.50634176      -0.46397957
H       25.81047944      14.37197847       9.88013206      -0.19400130      -0.00801521       0.10691776       0.77307296      -0.11468831       0.10334533
H       27.66957680      16.45228009      10.66126792      -0.06940037      -0.03854491       0.27637043      -1.04786444       0.00512433       0.08396858
H       29.44178317      12.85516767      11.44668141      -0.12242208      -0.14689866       0.01016697       0.08837211       0.19859540      -0.00136671
C        4.65013670      24.58836347       6.32471029      -0.30292521      -0.41045650       1.02306278       0.19528916      -0.37257960      -1.16848826
N        3.71237694      24.44261388       7.38934190       0.02681766       1.25499506      -1.12796611      -1.65284824      -0.51016736       0.66961646
C        2.28471167      24.48521392       7.37201935       1.25818947       0.05620879       0.57044134       0.94253379       0.69822264      -3.08491898
C        1.94051289      24.26213438       8.65065762       2.20025283       0.49812151      -0.63645067      -1.60054791      -0.43593824       1.88945198
N        3.03022011      24.02900508       9.48882573      -0.40197846       0.83284336      -0.15648785      -0.57570213      -0.18386419      -0.16759163
C        4.05152057      24.11709699       8.66201573      -1.78165818      -0.38193688       0.09497753      -0.16009390       0.35519803      -0.69194996
H        5.61025269      24.06231372       6.50023766      -0.11025990      -0.08445130      -0.14420101      -0.56231797      -0.02876455       0.09704202
H        4.84756801      25.61688996       6.11859956      -0.11424988      -0.24491305       0.13321221       0.44094664       1.17920768       0.18226273
H        4.19387067      24.26975441       5.38410582      -0.18617624      -0.13069117       0.11354494       0.05453353      -0.58826751      -0.04408404
H        1.70560903      24.64917388       6.38207485      -0.18298089       0.23232093      -0.12504451       1.07100654      -0.25401306       2.11765957
H        0.92810116      24.22526513       9.05287066      -0.05917940      -0.03051303      -0.29427331       0.18421960       0.08520222      -0.05540523
H        5.05373675      23.87658101       8.80660399      -0.06064452      -0.02113730      -0.05662303       1.61610723      -0.46802345       0.99739265
C       20.59289215       7.51081668      12.44373746      -0.36490039       0.00370847       0.64974272       0.23055226       3.25514579       1.12719941
N       20.06339525       8.78319985      13.20273211      -0.17284812       0.94483797       0.62984327       0.98638284      -1.53291035      -1.85442829
C       20.27249572       9.06064627      14.52926572       0.65706359      -0.64989417      -0.72137433      -0.83053958       1.00623393       0.23521207
C       19.70157207      10.33222538      14.66967845      -0.43887568       0.28768996      -0.36053617       0.77248394      -0.46838945      -1.39034128
N       19.27188688      10.85266337      13.43983528       0.57438831      -0.00923458       1.66324914       0.37499550      -0.90966201       0.08681849
C       19.52233605       9.87747014      12.56286736       0.45921919      -0.48426191      -0.13302908      -0.08237557      -1.14093089       0.67137992
H       20.10675169       7.58318589      11.49831232       0.14320283       0.23173231       0.38261078      -0.65800941      -0.47721541      -0.89463329
H       20.31112840       6.64687586      13.03626851       0.07496776       0.02644668       0.10335785       0.34517974      -0.01976788      -0.14715889
H       21.66569481       7.73669761      12.24513329       0.03959093      -0.16148218       0.18383451      -0.41166705      -0.83534527       0.52184904
H       20.78765733       8.35565607      15.19868185       0.13262679       0.03312867       0.01779424      -0.38887987       0.62033451      -0.21144658
H       19.46761146      10.95377945      15.46948807      -0.09810588       0.08025795      -0.04143717      -0.01353373       0.68119818       1.93697131
H       19.21054205       9.76699204      11.53385174       0.15347921      -0.05892480       0.00164299      -0.06330416       0.36949736       0.05900329
C        9.72520878      18.83236803      10.05189653       0.70258820      -0.26300874       0.16065282      -0.50619906      -0.63716006      -0.21139041