640
Lattice="19.152215 0.0 0.0 0.0 19.152215 0.0 0.0 0.0 19.152215" Properties=species:S:1:pos:R:3:momenta:R:3:forces:R:3 energy=-80132.1015625 stress="-0.017290148884058 -0.00240341923199594 0.0003820437123067677 -0.00240341923199594 -0.01749558001756668 -0.0018604504875838757 0.0003820437123067677 -0.0018604504875838757 -0.02057074010372162" pbc="T T T"
C       16.35836818       2.75271721       9.92262361       0.65482205       0.66868540       0.07118833       0.02453721      -2.68947077      -0.01482520
C       17.37029164       3.77550859       9.70267667      -0.64817415       0.35849280      -1.05341413       2.15804148       1.10618234      -1.67381239
O       18.43187578       3.61760658       9.04087283       1.34941920      -0.19996558       0.47670350      -1.88448799       0.06499052       1.46514964
O       16.97867600       4.98217000      10.20522753      -0.86548748       0.55856462       0.45278931      -0.07756543      -0.35250786       0.15935403
H       22.61044776       6.45649833      11.97409255      -0.10854930       0.19953518       0.12430575      -0.04416752      -1.33942771       0.27330643
H       15.43015143       3.09133192      10.34072999       0.02404098       0.08258259       0.23034519      -0.90625358       0.74978948      -0.53484952
H       16.62660136       2.08988313      10.77461578      -0.15305837       0.01642098      -0.02936302       0.68366170       0.04924275      -0.35595763
H       16.29537409       2.06924835       9.01869700      -0.19095781       0.28856714      -0.12858022      -0.28430235       0.84563804       0.91034591
C       34.31192810      -5.20019152      12.39753094       1.49424838      -0.10944389       0.80014971       0.27159089       1.35000575      -1.27916610
C       35.37302554      -4.13195865      12.42735450      -1.05483620       0.80680442       0.31973172      -0.63497162       0.69259691      -0.41782102
O       35.04534978      -2.90828234      12.38230541      -0.54385472       0.60090070       0.14637124       1.30417085      -1.72969651       0.29641601
O       36.63954486      -4.60175164      12.46420297       0.61146023       0.40462515       1.11317666      -0.06763124       0.54191536       0.22346476
H       36.72428864      -5.66484910      12.27088372       0.07521576      -0.13613886       0.32567390      -0.59195143       0.97971261      -0.50557393
H       34.65259915      -5.96323604      13.03544706       0.04780809       0.18027945       0.22725827       0.04331192      -1.50331473       0.82260388
H       34.23109684      -5.53606716      11.33648204      -0.25451599       0.06165906       0.03728377      -0.13810804      -0.23422459       0.70745981
H       33.38336900      -4.76283803      12.71936764      -0.02150251      -0.04765228       0.32403686      -0.63128924      -0.02949053       0.18820825
C        6.88768897      -5.09972512      -3.71003910       0.07105020      -0.34276834       1.54555029      -0.76271170       0.06473649      -1.28982937
C        7.00646738      -3.64024031      -4.01860111      -0.56268266       0.79677282       0.63750248       0.59852719       0.53955424      -0.18413991
O        7.63432854      -2.88065101      -3.07209844      -0.19979574      -1.52493118       0.22054144      -0.58568436      -0.99779034      -0.80618322
O        6.63938719      -3.23984884      -5.12672881       0.70255816       0.79787427       0.42984325      -0.12617655       0.72094476       0.14503413
H       -5.50332435       1.49071212      -3.38695240       0.43255658       0.03075861       0.01985472      -0.45657945      -0.08391993       0.14047384
H        5.84857675      -5.40902948      -3.56305485       0.02573298      -0.23049181      -0.04337520      -0.33949772       0.32942367       0.21154693
H        7.42548657      -5.29520938      -2.83702503      -0.02146659      -0.01976679      -0.29198113       1.17549837      -0.82453531       1.43629611
H        7.16990613      -5.68210519      -4.61408124      -0.05751414       0.19648894       0.22764165       0.44248962       0.33135334       0.65561271
C       -3.25026593       2.36416936      -5.60917677      -0.01632921       0.56102226      -0.30690676      -1.78805304      -0.91253150      -1.63761353
C       -3.80836937       1.82715920      -4.29946685       0.63246677       0.42454621      -0.22086800      -0.69232327       0.38607857      -2.04535508
O       -3.07599920       1.55607168      -3.36444335       0.21035812       0.34516028      -0.88730997       0.75554073      -0.21553662       1.48060465
O       -5.12435744       1.65955364      -4.34713998       0.60249381       0.26223816       0.51678600       0.35289955       0.25019273      -0.01709664
H       11.50537402       7.56681092     -17.08993653      -0.23046889       0.09463711       0.29632608       0.40339097      -0.31777567       0.85045314
H       -3.18310913       1.55858953      -6.40728550       0.15164861       0.06225869      -0.26111326       0.03025877       0.41126460       1.01677561
H       -2.29246153     -16.40573861      -5.45882255       0.19605031      -0.22992720       0.14172012       1.84547734       0.63664120       0.31762147
H       -3.88173443     -16.03985317      -6.14439828       0.02414783       0.15022728       0.05237303       0.04909685      -0.29725504       0.71579701
C       16.64416379      16.33196877      21.86675934       0.96748781      -0.87935477       0.26658547      -0.70478117      -0.55871689       0.78711975
C       15.98492613      16.13436008      20.50430981       0.76481427      -0.62832359       0.33671605      -0.23189604      -2.07721591       0.84079278
O       15.53217741      17.12093787      19.87536745       0.35361899      -1.32030337       1.05873793      -0.13637710       1.41871691      -0.72495985
O       15.93107811      14.92010650      20.09614790      -0.16228003       0.31203830       0.15896084       0.15421510      -0.08387601      -0.20671731
H       19.53022940      33.14497572      25.18057062      -0.31113575       0.15058454       0.19924494      -0.78918433       0.31215441       0.04907145
H       17.54374921      15.68818421      21.84942058      -0.02302872       0.09374190      -0.30658047       0.45245439       0.92943168      -0.05067974
H       16.11325082      15.76940587      22.69469126       0.09293228      -0.28130675      -0.37821954      -0.13548398       0.75558186      -0.74059826
H       16.69222707      17.41814494      22.10955948       0.19910063       0.08962541       0.19211649       0.55973995      -0.86055088       0.07269661
C       28.02714513      10.63133064       6.56687842       0.58374854       0.29168308      -0.93961843       0.55176145       0.49480996       0.38422835
C       26.83712246      10.54640589       5.71479530       0.19237087       0.13278593      -0.56152538       0.39524323      -0.58717299      -0.79100078
O       26.13619477       9.53319829       5.59312877       0.03343079      -0.03410570      -0.53137696       0.35833946       1.05665922      -0.05935684
O       26.64329961      11.68077153       4.94191544       0.52235128       0.36179466      -0.48862098      -0.85707533      -1.89259672       0.32179260
H       25.80929705      11.31465413       4.54661731       0.03817340       0.12355754      -0.00832334       0.00030184       1.17289901      -0.61259973
H       28.75169112      11.44607688       6.28644752      -0.23052359       0.12660270       0.00109074      -0.71412897      -0.79354250       0.32563889
H       28.47385727       9.65398057       6.63999892      -0.27616156      -0.13377497      -0.09183677       0.72177899      -0.58572835      -0.60404325
H       27.64360711      10.67223011       7.58015631       0.12618490      -0.28611627       0.06681068      -0.08986881       0.86236775       0.74780822
C       18.89327780      10.82578219      -3.44450843       0.25961965      -0.82440070       0.31968085      -0.93303055      -1.65067255       0.80166095
C       18.08246591      11.96916830      -3.00450792      -0.09457662       0.70492176      -0.81947381       1.25526774       1.72719085       2.10621738
O       16.99076111      12.17217182      -3.75473706      -0.75612577      -0.25592030      -1.25616020      -0.68930393       0.32137433       0.33805776
O       18.37188442      12.75659427      -2.04401646       0.37847443       0.92487601       0.29136992      -0.72868013      -1.70127881      -1.76413941
H       15.99656790      16.95371063      -0.71500249      -0.18619117      -0.04506187      -0.22082707      -0.37375155       0.40983492      -0.27613783
H       19.73277645      11.31093130      -3.92252254       0.30111039      -0.21786107       0.04113539       0.76566339      -0.42858893      -0.42186543
H       18.27316587      10.15795210      -4.16159398       0.08290599      -0.05703866      -0.03547287       1.26404333       0.95514739       1.04614210
H       19.20335048      10.24887936      -2.49284964       0.26392227      -0.19937935      -0.00990469      -0.11410655       0.71522194      -1.59696746
C        1.07812292      22.78219986       2.76035119      -0.49967260      -0.77272711      -0.23621556       2.32797480      -1.99531686      -0.71054393
C        1.65235024      21.46544776       3.42741644       0.18881197      -0.13743305       0.31789448       2.94692683       2.66936469      -1.93210745
O        3.03969867      21.23102980       3.27678158      -0.02083208       1.69168376      -0.37656818      -1.39259851      -0.19032526       0.64529526
O       20.16598741      20.64582667       3.99708923       0.76333160      -0.13936630      -1.19174594      -1.93971944      -1.88326037       1.45157516
H      -11.44458028      20.83979090      17.65936283       0.08320713      -0.21039163      -0.31046161       0.19857240      -0.19680682       0.62906498
H        1.68693536      23.62403729       3.15786664       0.10468614      -0.15197579       0.12766171      -0.98108566      -0.05408652      -0.07899150
H       -0.01390004      22.73076906       2.76945611       0.10419918      -0.11331997       0.18113830       0.27702865       0.61686093       0.38949078
H        1.44779075      22.64448142       1.69615800      -0.17883857      -0.21584967       0.28785104      -0.62357080       0.47708559       0.74918020
C      -11.54138423       0.34097277      14.37530323      -0.10486627      -1.72269486       1.47082738       0.89656460       0.62708294       0.00785017
C      -11.79126377       0.58040177      15.85520309       0.88597426       0.14132895      -0.52094120      -0.34261668      -0.81751144       1.25915253
O      -11.76122369       1.75562705      16.40981155      -0.82321274       0.80224058      -1.20505598      -0.14584666      -0.89033091      -1.45136118
O      -12.03719977      18.66799365      16.55288740       0.83728830      -0.25658805       0.85841402       0.22487518       1.05211282      -0.53713882
H       -3.11662866      17.68993462       7.21605950      -0.19349065      -0.28616212      -0.01483727      -0.24195406      -0.28563404       0.95905250
H      -11.80633525       1.21168667      13.77940064       0.04416346      -0.02305462      -0.18217890      -0.35663223       0.18219873      -0.22246620
H      -12.05903374      -0.56089725      14.06042782      -0.14550438       0.27731433       0.24147838      -0.22747084      -0.08642278      -0.08231360
H      -10.45929270       0.17241787      14.14901695      -0.26940443       0.13490679       0.14958565      -0.55096185       0.01331962       0.43716604
C       18.94322904      -0.32785086       1.52355174      -0.34130635      -1.30546302       0.22394974       0.02720807      -1.55167890       1.01344609
C       37.80187281       0.73064793       0.51436291       0.37503149       0.94971442       0.20118664      -1.14356971      -0.00217903       3.07657385
O       36.82122306       1.50733392       0.97502737      -0.42055208      -1.41208960       0.61202825      -0.73053211       0.64450014      -1.17674971
O       19.27918779       0.88830035      -0.48979875       0.94127229       0.16153390       0.45884196       1.15686536       0.55920160      -2.81950283
H       34.02238653       8.76455384       5.46087310      -0.09983230       0.00850787      -0.22334161       0.23427308      -0.51054549       0.80605012
H       18.67640908       0.00281475       2.56777831      -0.20495254      -0.10114341       0.17293061       0.69940317       0.02263959      -0.96580106
H       20.00323184      -0.69602482       1.42787311      -0.05340367      -0.18323640      -0.05685238      -0.96722257       0.29003465       0.23451464
H       18.22640685      -1.18442847       1.38928309      -0.22177721       0.23708057      -0.05066954       0.65430039       0.43278974      -0.28816140
C       19.69619662      14.90010673       0.44206292       0.58705922      -0.83410115      -0.22477243      -0.06072360      -0.99943268      -1.28634787
C       20.62765069      14.27570256       1.46738105      -0.91521247       0.18983191      -0.07382420       1.77741790       0.65726745      -1.82067859
O       20.07039951      14.15552147       2.67392847       0.67951602      -0.96727563      -0.13820072       0.21130562      -0.53759885       0.82390648
O       21.83074250      14.03806270       1.18992007       0.29949473       0.04128193      -0.06954783      -1.53962421      -0.13622496       0.63703358
H       24.19295631      -5.79589472       4.00277552       0.11385772      -0.09283941      -0.05513566       0.20015839      -0.09912550       0.18050876
H       18.69492158      15.01548030       0.80751197      -0.00252251       0.20765407       0.20116512      -0.85272992      -0.05822071       0.56331533
H       19.58777842      14.33343256      -0.54895952      -0.05312447       0.12461147       0.30187031       0.52295697       0.41941568       1.35963738
H       20.03014213      15.90487982       0.19916404      -0.12998270       0.12193002      -0.15077818       0.39254227       0.33642730      -0.11332560
C       -6.89282666      13.29410918      26.55339113      -0.47217934       0.18943693      -1.54800695      -0.11360738       2.47995234       2.92839956
C       -6.47882772      12.11028779      27.32553022       1.11507358       0.23098035       0.79925353       0.23210129       2.46058035       1.92847431
O       -6.72353126      11.02459849       7.77889477       0.47735160       1.30291782      -1.22603119      -0.54058462      -4.12976837      -1.37040854
O       -5.98403512      12.32617964       9.42839426       1.07333827       2.01463021      -0.30055491      -0.10733211       1.15759540      -0.71671438
H       -1.70436343       2.40948568      19.51371202       0.07471691      -0.26122399       0.05534146       0.46951669      -0.33527958       0.73956633
H       -7.37675899      13.17025264      25.64216553       0.23919744       0.07358345      -0.05899340      -1.23630559      -0.91764867      -1.42774212
H       -6.15720628      14.03805407      26.39299127       0.07254487       0.11882914      -0.09326107       1.90184259       0.33001518      -0.31253397
H       -7.45069412      13.94056776      27.29497109      -0.08042130       0.20421127      -0.00326039      -0.50524968      -0.68341386      -0.72098494
C       -1.72524803       7.84197403       8.82057337      -0.60709215       0.09147351      -1.86566633       0.15413231       1.86056805       0.28241548
C       -0.34123549       7.20532060       8.78647850      -0.28872383      -0.61626369       1.00751696      -0.06681299      -0.00211668      -1.58145046
O        0.03879537       6.59687211       9.81026207       0.30339552      -1.01490364       0.52837200      -0.03346169      -0.32085484       0.17863917
O        0.34411358       7.32021405       7.66745385       0.12634147      -0.86193095      -0.23177011      -0.02538854      -0.02978017       0.99198031
H        7.40893000       6.85694352      14.84657102      -0.02161323       0.08523083      -0.15254333      -0.37919086       0.23714727       0.49913710
H       -1.89212585       7.95355775       9.88976709      -0.07186608       0.14534589       0.43391730      -0.23131719       0.56758219       0.34394008
H       -2.63345621       7.31819067       8.51048822       0.01647028      -0.06877939      -0.14224265       0.46582764      -0.44012284      -0.75282735
H       -1.70978272       8.87849011       8.33068977       0.38629790      -0.05009181      -0.42500978      -0.17629069      -1.55212283       0.64421195
C       -4.64325850       6.39675546      21.40969855      -0.13615977      -1.25401076       0.09700262      -0.10162997      -0.27993974       2.30947781
C       -6.11022164       6.39517561      21.22090262      -0.23371687       0.20907064       0.41510677      -1.63766706      -0.42493480      -1.62332356
O       -6.74782494      24.78077041      20.48450263      -0.67860282       0.50908186       0.48419531       0.78884065      -0.62270766       0.11265519
O       -6.79814431       7.40321955      21.77326057      -0.82820441       0.71921051      -0.38009508      -0.44283044       1.26955891       0.07117653
H       18.70785459       6.61635428      25.65869121      -0.16068651       0.12280709      -0.06673695      -0.44092327       0.36904937       0.16070929
H       -4.16994084      26.30675622      20.84097424       0.05817826       0.01378435      -0.29253247       0.43227619       0.91518378      -1.04905784
H       -4.18426865       5.42736235      21.24066648       0.19306420      -0.02984653      -0.15334665      -0.29186630      -0.20664811      -0.20656495
H       -4.43617104       6.70190759      22.45605854       0.15434127       0.13476936      -0.04724967       0.07246818      -0.20491582      -0.16895856
C        3.50099247      10.32503875       4.17162508      -0.09166889       0.18383385       0.23763964       0.94595373      -2.90814710      -0.64278084
C        3.73778767      11.78153330       4.06334880       0.52086065       0.25702815       0.42606010      -1.52363169       0.91227096       0.90336537
O        2.77935405      12.59387634      23.42947084      -0.26185142      -0.45953433       0.35778685       0.88967639      -0.54887164      -0.33312699
O        4.96492675      12.14765857       3.79606465       0.17179350      -1.46184692      -0.35446276      -0.12011588       0.78861445      -0.18482152
H        7.37975481      17.30496810      -3.04272001      -0.02109937       0.10600785       0.18816786       0.05731571      -0.11232144      -0.20139450
H        3.59592561       9.83153526       3.18952315       0.04229180       0.20910093       0.09082961       0.23221403       0.38567328      -0.61199927
H        2.54050870       9.90807187      23.59355495       0.04077496       0.13722381       0.07187088      -0.71084237       0.76491022       0.67441618
H        4.26809605       9.68668606       4.70629304       0.22520736       0.20389784       0.19812524      -0.32989314       1.22488260       0.01417460
C        1.65448442      29.90582596      19.52605915      -0.12979493       0.15694437      -0.30992781       0.12482198       0.74910390       1.45686412
C        1.94799549      28.56462371      18.91028279      -0.10506830      -0.51077960      -0.74228859       0.73131716       0.51706028       2.00974274
O        1.37330811      28.07621682      17.96771303      -0.19900507      -1.34933209       0.51761315      -0.63965952      -0.25954849      -1.28076267
O        2.86920776      27.91868873      19.66058971       0.08023880      -1.84229101      -0.66131756       0.43832034       0.13232794      -0.22973418
H       -2.69747550      12.67728068      16.04551769      -0.09117295       0.15189392       0.34331910      -0.97095788       0.46901366      -0.39423624
H        0.63227682      30.23095250      19.36765987       0.22263544      -0.13701403      -0.24232347      -0.34217152       0.05652706      -0.56900138
H        2.33462228      30.74348420      19.27387563      -0.29301265       0.20329698      -0.10195994      -0.05132001      -0.43321180      -0.40688854
H        1.73422948      29.86278336      20.64573313       0.01947079      -0.03429451       0.15230268       0.08431283      -0.27670142      -0.64560497
C        5.56133182      -1.53661534      12.00595767       0.78184396       0.24590063       0.58054780       0.50646728      -1.52914488      -2.98942351
N        5.20020461      -0.95805545      10.61479560      -0.04538324       0.48807951      -0.32553484       1.54298615       1.10157371       2.32983470
C        5.46131366       0.39157136      10.32106842      -0.90614396      -1.40191204      -0.20076771      -0.52055442      -0.09342691      -0.35739893
C        5.48533982       0.45372120       8.92140797      -0.13664891      -0.74745818      -1.09763669      -0.00391832      -0.49424464       1.06827176
N        5.24572552      -0.77698221       8.37762470       0.49439302      -0.19591700      -0.48464122       0.19209212      -2.02036023       1.30321324
C        5.14634053      -1.62953304       9.45504492      -0.17217768      -0.48948806      -1.01074397      -1.32171893      -1.25303209      -1.30185568
H        5.56353215      -2.66865081      11.91711995       0.03875050       0.12329920      -0.11482064      -0.33395380       1.27625930       0.05610164
H        4.86466095      -1.20875769      12.73279290       0.03102305       0.12636069      -0.12171632      -0.60488379       0.49249357       0.82421708
H        6.60990119      -1.29552606      12.22190311       0.24922832      -0.02406239       0.16001161      -0.29471976       0.31948623       0.07021564
H        5.46715284       1.12160246      11.13478307       0.30233604      -0.10874540      -0.15815559       0.17966661      -0.15106305      -0.40944242
H        5.77085564       1.22448073       8.24203662       0.11584319       0.08962829      -0.27823936       0.08391765       0.75897503      -0.04313385
H        4.81007901      -2.72020318       9.53334972      -0.14439612      -0.04165822      -0.11329663       0.65528309       1.66734040      -0.83202511
C       15.02564853       9.51265073      15.36072434      -0.50774643      -0.90637116      -1.02086002       1.77731740      -0.49401063       1.20485723
N       14.56920816       9.51076488      16.75745180      -0.17672540      -0.26626063       0.61999312      -1.71361864       0.61724871       0.74844694
C       13.32262734       8.98565644      17.18534702      -0.06383292       0.11299821       0.88271193       0.71578872      -1.19979072      -1.06514359
C       13.52492036       8.73952474      18.54749538      -0.43027611       0.45464214      -0.62956319      -0.08469170       0.59243274      -0.88782078
N       14.71211920       9.31717751      19.00211969      -0.23797672      -0.18167081      -0.35466320      -0.67364305      -0.10211945      -0.11345625
C       15.25015327       9.82323179      17.90891496      -0.84475904       0.09651324       0.27882317       1.33368659       0.59143883      -1.52411449
H       15.10516977      -8.62156737      14.93137380       0.12453515      -0.40472780      -0.06280935      -0.00146192      -0.55610353       0.10692024
H       14.31048915     -10.25322399      14.89685160      -0.23966240       0.00431954      -0.38075548      -1.18143773      -0.35432273      -1.06523287
H       15.97200234       8.87706152      15.28365085       0.18009806      -0.11376737      -0.13538723      -0.64152908       1.18272686       0.03040064
H       12.52658884       8.73629469      16.38997242       0.10327102       0.09108871       0.07379586       1.29451668       0.49622074       1.65778279
H       12.97848895       8.04608589      19.14532540       0.04378738      -0.15748842      -0.01088975      -0.39183140      -0.05689967       0.45751575
H       16.04639015      10.58032179      17.76950574      -0.00480373       0.23208646      -0.01539257      -0.23576599      -0.72870344       0.76691842
C       25.41905179      11.88235945      12.47111006       0.01823513       0.56926512       0.18630248      -2.12933207      -0.22011927       0.21121885
N       25.47763975      12.66955814      11.21504413       0.14895037       0.09147845       0.03175345       0.71355540      -0.66091388       0.39865351
C       25.38977381      12.11494694       9.93209285      -0.25711111       0.23971366       1.07744539       0.89480716      -0.63620418       1.21538615
C       26.12728242      12.97025355       9.13072275      -0.87731098       0.23085974      -0.57333180      -1.55056250      -0.24373756       0.01099980
N       26.54295059      14.06823334       9.82834123      -0.36548396      -0.59482910      -0.41310062       0.33582127       0.09521562       1.55778694
C       26.16554543      13.84775426      11.13327487      -0.02738935      -0.85797523       0.91438831      -0.22234988      -0.15407801      -2.63514566
H       24.89481733      12.57154408      13.15946740       0.19543448       0.13533469       0.20750211       0.13766961      -0.63997638       0.10154119
H       26.36527502      11.59478109      12.94090822      -0.08619148       0.15546470       0.20105732       0.26605493       0.09926022      -0.51041752
H       24.76894971      10.95073939      12.34508735      -0.09383829      -0.02652718       0.00176335       0.86342812       1.18823564      -0.01255123
H       25.07978598      11.05868689       9.87537504       0.02957208       0.21107411       0.12848533      -0.03125565       0.64345282      -0.30523312
H       26.11070145      12.88399656       8.05835721       0.06524241      -0.18164072       0.13225121       0.52271986       0.09749894      -0.26470518
H       26.33351525      14.54633425      11.94494192      -0.10707562       0.08604271      -0.38059783      -0.25832105      -0.36145478       0.04354745
C        1.71449499      23.03178989       6.85987510      -0.27544201       0.48544491       0.33839302       0.70034307      -0.56627250      -1.43823028
N        2.84390769      23.00700784       7.74601086      -1.03581190      -0.14929252      -0.02631562       2.63816977       1.35373998       1.46557117
C        4.24017857      23.08577881       7.45811717       0.28665244       0.27317518       0.44579557      -0.16925859      -0.80990744       1.47101247
C        4.84449378      22.90135523       8.73244733       0.13292160      -0.18922468      -0.91005254       1.85056078       1.37840986      -2.49956560
N        3.92423232      22.88991148       9.71810238       0.33387579      -0.25116080      -0.27657779      -0.42486894      -0.19997975       0.42178157
C        2.76938037      22.95907341       9.10481130       0.38992591       0.38850362       0.34699146      -3.28451085      -0.20566837       0.05757564
H        1.43300759      21.97102407       6.84420613       0.03426544      -0.18503246      -0.02102398      -1.01851010       0.25956404      -0.31625026
H        2.16083769      23.26675704       5.86975383      -0.09845906       0.02343830       0.18594419      -0.59196252       0.03782202       0.24785224
H        0.93750568      23.76809848       7.12410374      -0.12109452      -0.38735666      -0.11309274       0.25078994      -0.46351978       0.20090304
H        4.70993757      23.36005675       6.48729782      -0.28695525      -0.13105171      -0.02490044      -0.66014719      -0.26848847       0.57278419
H        5.93509134      23.00767762       8.90814263      -0.33319674       0.12055464      -0.04668276      -0.82608116      -0.34913075       0.08807244
H        1.77382781      22.96888465       9.59619783       0.24335189      -0.21956620       0.01170504       0.73792338       0.09827226      -0.28683102
C       20.41580985       9.77534238      10.73499378       0.48997954       0.30013199      -0.84249546       0.06863973       3.12006903       0.90907109
N       19.22448519      10.51760953      11.19798293       0.66160347      -0.25001011      -0.29877432      -0.51109612       0.81458420       0.12273683
C       18.14404139       9.94598603      11.85529665       0.21082066      -0.22855816      -0.93510499       1.52568126      -2.99880886       0.90312541
C       17.22816068      10.91957273      12.05899062       0.61800006       0.11089505      -0.03605357      -1.91096771       1.40926147       0.56844079
N       17.70510406      12.11039208      11.52272752      -0.02649052       1.22375011      -0.48904737      -0.25241286       0.32123995       0.86104387
C       18.90146978      11.86626052      11.05312642       0.40002089       1.11527387       1.97107526       0.78035140      -2.24455810      -0.23737907
H       21.27459825       9.95051578      11.37643866       0.09248741       0.39031342      -0.28044369       0.19779988       0.19966306       0.20483369
H       20.65018275      10.10971668       9.75673080      -0.18272557      -0.04323979       0.24979191       0.35483080       0.29282802      -1.23828816
H       20.22357145       8.77694754      10.73294632      -0.14493606      -0.19680975       0.22905914      -0.80764329      -3.07084608      -0.10251332
H       18.33374020       8.87953288      12.27016170      -0.17227416       0.01736496      -0.26767197      -0.79294038       1.95840919      -0.75586289
H       16.26337533      11.01032347      12.62086263       0.10873085      -0.08225703       0.01945666       1.07356644      -0.71947181      -0.56428128
H       19.59071084      12.54845230      10.65138573      -0.08389145      -0.53023888      -0.21372223       0.78928328       1.00485086      -0.57108504
C        9.00357275      18.84564715       9.73770200       0.15704876      -0.30033797       0.32581891      -1.00177765      -0.44503409      -2.55933475
N       10.24111452      18.77006978       8.98279306       0.25795577      -0.73015205      -0.01088694       0.05038249      -0.48513645       1.29485500