640
Lattice="19.152215 0.0 0.0 0.0 19.152215 0.0 0.0 0.0 19.152215" Properties=species:S:1:pos:R:3:momenta:R:3:forces:R:3 energy=-80131.8515625 stress="-0.014252141118049622 -0.0011186724295839667 -0.0005336769390851259 -0.0011186724295839667 -0.01798682101070881 0.00043042702600359917 -0.0005336769390851259 0.00043042702600359917 -0.016403401270508766" pbc="T T T"
C       15.17059885       6.09146533      10.90278611       2.47090622       0.24460922      -0.07453587       0.64196455      -0.52129406      -0.56597257
C       15.09902677       4.64469606      10.62260599      -0.66763045       0.64451425      -0.44773507       0.15024364      -0.52119207      -0.16801925
O       15.48159820       3.80152648      11.44525455       0.28979151      -0.20236834       0.29023916      -0.52913082      -0.16408759      -0.61243975
O       14.57462559       4.37011264       9.38667272      -0.17531549      -0.01136912       0.89022632       0.40577608       0.15486360       1.01422870
H       23.99946939       3.65043993      11.57435047       0.11094150       0.17348415      -0.17104006      -0.71705055       0.26289400      -0.43820024
H       15.37500369       6.20557822      11.94909416      -0.17645249       0.19492673      -0.10781143       0.40544891       0.47840488       0.54928261
H       14.24011333       6.50177652      10.65161023       0.09153303      -0.19747645      -0.21044282      -1.77454638       0.89651835      -0.16635221
H       15.87391671       6.54038062      10.20529496       0.26211475       0.14018664       0.02690931       0.52750170       0.28262612       0.11961937
C       36.37565761      -4.44268151       9.12735693       0.18876028       0.86014599       0.25492965      -1.14823103       0.34105217       2.46793628
C       35.90672567      -3.47925737      10.22478730      -0.23330893      -0.21881522       0.30296821       1.07786596       1.26328433       0.32938808
O       35.54424482      -2.28979485      10.06737296       0.33617772      -0.46514348      -2.00732444      -0.15676895      -2.00966024      -0.54764396
O       36.16815254      -3.88067731      11.47457583      -0.33607377       0.47126588      -0.82403435      -0.91092038      -0.18833899       0.39747477
H       36.64100183      -4.79697979      11.61861841      -0.01229115      -0.11253016      -0.05570985       0.15371324      -0.00630766      -0.35804284
H       37.43135253      -4.39500915       9.21533073      -0.05799877      -0.21828366      -0.10034831       1.42545044      -0.05391648      -0.60961998
H       35.95811497      -4.14589710       8.23112140      -0.05259633       0.01656194       0.06494927      -0.45460570       0.75004011      -2.10819817
H       36.05503699      -5.45228341       9.32815537      -0.09435754       0.13007911      -0.34347931      -0.19786474      -0.55647063       0.36020285
C       10.11643126      -5.79886025      -5.49630342      -0.38846309       0.53333215      -0.84198719      -0.41447809      -0.96758902      -0.67635643
C        8.84984888      -4.95985482      -5.39215328       0.94569522       0.47490786       0.47707505       2.86810994       0.73711401       1.80429232
O        8.75097294      -4.39047267      -4.16387820      -0.49462486       1.35242989      -0.39705420      -0.56479758       0.47294199       0.82253516
O        8.16402136      -4.63344432      -6.31681350       0.81169424      -0.70744873       0.15050589      -1.56065714       0.10039535      -1.90313220
H       -3.79054848       2.79130028      -2.94891757      -0.14743517      -0.01264925      -0.18513746      -0.21658164       0.36071792      -0.32083088
H       10.69637811      -5.44289850      -6.40142395       0.36558354      -0.03128200      -0.06784710      -0.48458284      -0.51272202       0.92855465
H        9.69050800      -6.81724860      -5.68842486       0.23785216       0.36307621      -0.22416824       0.58984643       0.51575482      -0.29778361
H       10.75203482      -5.94721516      -4.59807998       0.07427632      -0.24637268       0.18366811      -0.35103324       0.74051732      -0.22875646
C       -0.59841127       2.96398770      -4.55917930       0.08363518      -0.01958645      -0.04166232       1.11928618       2.10625172       1.39307535
C       -1.82262344       3.33161660      -3.81732483       0.31233404      -0.63661772       0.50942963      -0.83088386      -1.28204513       1.18718755
O       -2.65755303       2.37461283      -3.70853449      -0.57725513       0.10536434      -0.65388085      -1.10630107      -0.74097919       0.11920767
O       -1.99567152       4.44445556      -3.23750054      -0.16420206       0.49504013      -1.17380842       0.00627464       1.02777314      -0.37831143
H        8.92270599       3.51277161     -18.71190429      -0.17685911      -0.39646490      -0.19524362       0.02275032       0.66728467      -0.18362865
H        0.26678719       3.20632157      -3.90402068       0.31348581       0.16890634      -0.07040389      -0.17306387      -0.20528850      -0.18270680
H       -0.59326054     -15.38029810      -5.26689181      -0.10269852      -0.19574203       0.02604046       0.67430365       0.04862279      -1.50201845
H       -0.53598709     -17.19876843      -4.86950657       0.06742321      -0.00046895      -0.00808217      -0.12220600      -0.80141228      -0.65267837
C       20.53461098      14.33697831      21.55208184       0.27282485      -0.42236411       1.10790493       0.83855414       0.29641590       0.79075789
C       19.53696603      13.72039576      20.55609039      -0.07180361      -0.22718878      -0.19570617       0.11390150       0.13032204      -0.53634286
O       18.52311569      13.06839878      20.95086013      -1.60220464       0.06453740      -0.41135014       0.68951452       0.05081776      -0.06120799
O       19.86181696      13.94752939      19.30886907      -0.17576993      -0.08498754       0.15929672      -0.67364448       0.81741631       1.64790285
H       18.14426024      33.85616460      25.28339632      -0.03051094      -0.11717281      -0.21519958       0.45229214      -0.77001774       0.32729432
H       20.11338014      14.99409767      22.36427068       0.44741314       0.04699886      -0.00434462      -0.24771473      -0.54775310      -0.80763680
H       21.19275855      14.99713352      20.91504356      -0.12070391       0.48885697      -0.21472467      -0.26446778      -0.82622039       0.90389109
H       21.13756556      13.57492376      22.18000284      -0.13326078       0.04097253      -0.03630799      -0.67258388       0.94820368      -1.24856925
C       26.82627889       7.98575833       6.71584100       0.84950622      -0.57010844       0.90363196      -0.57672185      -1.25353587       1.13054252
C       26.57859026       9.16806032       5.93720804      -0.56357842      -0.07048087      -0.96667807      -0.54555523       1.70192647      -2.96131110
O       27.06955881      10.29466429       6.11022061      -0.11347426      -0.36613332       0.00777219      -0.21076217      -0.83054906       0.06033278
O       25.76367947       8.94593877       4.79387918      -0.40756972      -0.13744399       0.07517605       1.63919926      -2.41245699       3.03191614
H       25.51126636       9.82255309       4.53348558      -0.25359033      -0.06193826      -0.26083765      -0.68300611       2.33266902      -1.30740798
H       25.82246341       7.50276176       6.97289541      -0.06115924       0.17605255       0.15402759       1.58718252      -0.00205296      -0.35766882
H       27.42425497       8.24267926       7.57964053       0.00610651      -0.17603601      -0.08683663      -0.28135866       0.39258504       0.81291968
H       27.59788062       7.38070794       6.21413988       0.06268056       0.07265305      -0.19858103      -0.73490900      -0.58411884      -0.50160515
C       19.52883923      10.36480529      -2.81743229      -0.52814932      -0.56055440      -0.11569273      -0.27338755      -1.02269745       0.97858858
C       19.24766787      11.51496914      -1.88896522       0.93189387       0.89935957      -0.99480666      -0.81662047       0.94297391      -0.53482866
O       20.22052399      12.18308035      -1.31010647       0.77644225      -0.38937620       1.23391757       0.64693475      -2.29270983      -1.55616474
O       18.04746533      11.86613535      -1.73546507       1.00422851      -0.85008603      -1.17395438       0.63623679       0.09142178      -0.08385929
H       17.75646839      13.47591506      -2.58318774       0.05415180       0.12482544      -0.09522777       0.26311147      -0.36996454       0.71903116
H       20.19058157      10.45446013      -3.66829177      -0.21166208       0.34004964       0.16367336       0.37364951       0.63713104      -0.17377269
H       18.58922655       9.90972417      -3.11545156      -0.01348859       0.17336936       0.12846799      -0.38224587       0.24000661      -0.43357295
H       19.91425428       9.55601522      -2.19949120       0.22448253       0.18036555       0.23447561       0.78668386      -0.31739312       0.32363155
C        3.03318860      20.41695055       3.21127073       0.30645399       0.24349099      -0.67132846       2.09905601      -0.19691974      -2.27827144
C        2.03265974      21.34639163       3.70227334       0.04468367      -0.61770200       0.91573175      -1.00710964       0.07072340       0.77045423
O        2.17722374      22.63302503       3.38650068      -0.77897790      -0.05596732       1.17434236      -0.04628396       0.83952367       0.17713913
O       20.19244489      20.97065751       4.33400263       0.06585015       1.29460296      -0.86941518      -0.05217361       0.14348641      -0.15984175
H      -13.00991649      18.91449267      15.53021798       0.06551872      -0.13569105      -0.20457363      -0.75982511      -0.68733954      -0.56746024
H        2.96731303      20.37665916       2.07858702      -0.06882940      -0.06803748       0.07776813       0.20186649       0.31565493       0.76704216
H        2.78875649      19.41685861       3.45202618      -0.04447864       0.09654227      -0.04091466      -0.20183222      -1.22266495       0.81150973
H        4.11417759      20.62636566       3.43855315       0.10932765      -0.00751233      -0.13795559      -0.96924174       0.03578669       0.05120903
C      -11.48605705      -1.76191339      16.76206325       0.72805169       1.25905440      -0.28452684      -0.76229733       1.38517582      -0.74000573
C      -12.51755712      -2.06523383      15.65841692      -1.44264793       0.78744372       0.00293822      -0.33805576       1.66210771       2.70531917
O      -13.35978325      -1.17254445      15.13818779      -0.79787101      -0.12705098      -0.13258614       1.71802449       1.79444313       0.55535406
O      -12.72657558      15.91327614      15.51467534      -0.06030916       0.42112322      -0.11638652      -0.43752784      -3.38041162      -1.88890755
H       -3.98418872      21.21274150       7.20878443      -0.13752594      -0.12221065       0.27541072       0.09343410       0.25260377       0.32804978
H      -10.49964733      -1.78821602      16.33076595       0.21122588      -0.08490959      -0.24344473       0.75659537      -0.44332397      -0.16558909
H      -11.62432802      -2.49055462      17.57244747      -0.13751877       0.34809511      -0.03952369       0.18406753       0.17324042      -0.29878992
H      -11.58034424      -0.73026544      17.11381267      -0.06196364      -0.30750220       0.05014189      -0.11920346      -0.11911079       0.33404067
C       15.19703190      -0.92197324       1.65604444      -0.74539953       0.15388628       0.39659931      -0.31266826       0.54815906      -0.51466829
C       35.12740845       0.39798687       1.78306558       0.05503193       1.12035153       0.96983111      -0.54681742      -0.92775977      -0.25399008
O       35.11400058       1.14987691       0.70332845       1.37517335       0.35633860      -0.48317095       0.44771662      -0.19042087       1.49308205
O       16.51810734       0.60798601       2.89749955       0.46849751      -0.64435148      -0.80222289       0.35187602       0.97771281      -0.28890741
H       32.94911346       7.50669647       2.37175263      -0.32789522      -0.43697696      -0.12411802      -0.14362752      -0.19932437       0.77581745
H       15.85003010      -1.82448840       1.55470245       0.01343461      -0.09826298      -0.28291701      -0.48670089       0.54356360       0.08513843
H       14.61876528      -0.73576746       0.74600406      -0.33829064       0.27483733       0.19946557      -0.31415525      -0.66962743      -0.15321288
H       14.47308481      -1.04584927       2.49441667      -0.15031307      -0.02587123      -0.12753956       0.53065962      -0.03115681      -0.34359971
C       22.15344520      17.11908321       5.75831011      -0.06905241      -0.47275210      -0.80856413      -1.36630213      -1.18897080       0.59394556
C       23.15082616      15.95827604       5.75157011      -0.32688444      -0.43355123      -1.68143095       0.44968009      -0.35511065      -0.85132015
O       22.67647501      14.79298707       5.17985901       0.08790551      -0.04947616       0.44817892      -0.59445906       1.75058818       0.60679477
O       24.32552839      16.05551106       6.13114770       0.49390119      -1.02227215      -0.02572918      -0.75792336       0.19334728       0.09167811
H       25.90331168      -5.55074892       3.94066284       0.04382873      -0.12041392      -0.15456656       0.55647683       0.27250475      -0.21553697
H       22.57396964      18.11666656       5.69966068      -0.10998583      -0.56471592      -0.23862061       0.52188551       0.01324129      -0.11835597
H       21.58037475      17.05632263       6.71686389      -0.11116212       0.01324373      -0.16204522       0.41015092       0.10717452      -0.13554689
H       21.32885498      16.98816247       5.02292195       0.02286162       0.54708663      -0.51758066       0.70112902      -0.00184033      -0.03938569
C       -3.39117384      11.16630523      24.09917911      -0.35252568      -1.43590074      -1.02271498      -2.03141665      -1.20042479      -0.95627987
C       -4.20285653      12.12516214      24.96025930       0.35691837       0.19658281      -0.85666574       0.66379988      -0.22821355       0.76208091
O       -4.71967690      13.19537760       5.43137768       1.68584093      -0.37760501      -1.11855840       0.41509736      -0.98982012       0.03611261
O       -4.24923330      11.65012870       7.06873476       0.31720451      -0.19147053      -0.65288004      -0.70921421       0.67642272      -0.18266031
H       -2.24338758       2.25991980      20.11205750      -0.13529614      -0.08831193      -0.14070090      -0.19430429      -0.20146418      -0.41673186
H       -3.27987675      11.57220264      23.10111041      -0.18308892       0.00235041      -0.51996687       0.63640726       0.22872835      -0.23763436
H       -4.00020328      10.23061542      23.93601158      -0.08986356      -0.04715686      -0.03702858      -0.49381173       0.76840413      -0.07504295
H       -2.57468704      10.59377643      24.51372494      -0.11774357       0.15839577      -0.16065622       1.06741059       0.91690361       0.60476887
C       -2.47594866       9.54223170       9.24175907       1.07373816       0.37434733      -1.43711302      -1.26076233      -0.32610017       0.16267413
C       -1.52651543       8.40029531       8.78479260      -0.30635129       0.87060488       0.33278223       0.70437574       1.33319044       1.29197145
O       -1.91284109       7.43801714       8.08036395      -1.95401328       0.17601920       0.42218687      -0.45025080       0.01782250      -0.01782906
O       -0.32651649       8.54342584       9.27312067      -0.05634842      -0.24959977      -0.11453431      -0.36066782      -0.16372237      -0.40321463
H        7.38612864       8.33450293      15.06077241       0.08556201      -0.15794813      -0.25461556      -1.00250590      -0.81791270      -0.40011865
H       -2.75955236       9.49574182      10.30601040       0.40002798      -0.03178245       0.10565227       0.39011109      -0.43755150       0.05032223
H       -3.44235311       9.63368329       8.73863774      -0.25442430       0.23650482      -0.02692446      -0.08074531      -0.83141398      -0.48415995
H       -2.14837898      10.55735470       9.12419199       0.19625627       0.33783345       0.05501677       1.30803227       0.56518418      -0.19176888
C       -9.20478528       1.13151410      21.45901794       0.18544516      -0.36948340      -0.59254505       0.74355590       1.08357775       0.12726894
C       -9.78038288       2.44479423      21.13465632      -0.49267374       0.48127254       0.13242316       0.89887983       0.54497933      -2.37438154
O      -10.19144290      22.42874467      21.91846583      -0.65039892      -0.35037408       0.54926354      -0.65578490       0.46669447       0.97167408
O       -9.64026769       2.70455487      19.78931474      -1.15415293      -0.26567617      -0.83533604      -0.53401160      -0.49887520       0.67554057
H       18.21815991       6.77334005      26.08002414       0.18078979      -0.06698330       0.09039282      -0.71677196       0.09048069       1.54763007
H       -8.15636034      20.28762380      21.19394851      -0.01499432      -0.08804928      -0.26504576       0.53714365      -0.05565009      -0.22556418
H       -9.66115868       0.31748404      20.99086142      -0.35643948       0.23392009      -0.06141827      -0.97417068      -1.26910210      -0.92012310
H       -9.28085065       1.06717299      22.49184565       0.27396650       0.30353680      -0.14715086      -0.00944990      -0.70476544       2.27503610
C        3.96164930      11.61110992       5.17257488       0.53195132       0.21428828       0.54722012      -1.32535636       0.07521701      -0.96163523
C        5.22455110      12.07710931       4.37438853      -1.19288489      -0.38755057       0.29242928       0.18035024      -2.47021246      -0.40142757
O        5.52448468      13.33794641      23.60567026      -0.71632077      -0.05636276      -1.18341500      -0.59443885      -0.57665026      -0.37601647
O        5.95685250      11.18551207       3.74409169       0.30509784       0.48425657      -1.02758134      -1.85286474       2.77912045       1.11180222
H        7.98379760      15.43283307      -4.09762578      -0.06742013       0.15674775      -0.13114376       0.31287885      -1.32384348      -0.16220871
H        3.81405954      12.18188857       6.07662734      -0.02202448       0.07871133       0.22293468       0.48416993       0.40188071       0.71605623
H        4.02303734      10.55927904      24.61324054       0.35041299       0.00431877      -0.21936327       0.21265684      -0.15202968      -0.13426802
H        2.88558717      11.75420512       4.74392285      -0.11552610       0.10184183       0.36473285       2.03283691      -0.15214472      -0.19234587
C        2.84781739      29.03517866      20.18449572       0.25209144      -0.08083219       0.54114674      -0.80815673      -0.18240583      -1.91264439
C        2.52625787      27.69348940      19.48868015      -0.24272464      -0.06752109      -0.19552622       0.52455753      -0.44367170      -0.14077812
O        1.97479143      26.72299497      20.06120017      -1.55272041       0.92899255      -0.31487147       0.07394759       0.77713680       0.21682799
O        2.99753363      27.61004753      18.26559225      -0.51907933      -0.68085937      -0.81018823       0.24416770      -0.27666122      -0.56893313
H        0.72842968      12.98774345      18.41973852       0.03825991       0.03426339      -0.14028808      -0.08580804       0.59534448       0.72218931
H        1.91722440      29.44645849      20.55997362      -0.03199844       0.10349686       0.31242699      -0.25368163       0.44572735       0.06074263
H        3.42927217      29.74327752      19.54476488       0.03209708      -0.09249820      -0.06681835      -0.68389672      -0.68366289       0.29953969
H        3.44234899      28.78686241      21.00174187      -0.16123672      -0.07671805       0.10399427       1.28393233      -0.36979419       1.93213451
C        5.71611792      -3.46298820      11.20545203       0.10408230       0.45821647      -0.56714772       1.28940582       0.99041349       1.31859183
N        6.15700108      -2.07931336      11.28281715      -0.25186110      -0.90637894       0.11182405      -1.47363961       1.09790671      -2.01626682
C        5.62297424      -0.98100577      10.54103608       0.33801642      -0.12649369       0.29786094       0.67329150      -0.74634010       0.74686855
C        6.37496234       0.10375302      10.97621488       0.13779736      -0.46880597       0.87248839      -0.53725749       0.05977064      -0.68499142
N        7.31028809      -0.26238495      11.91901347      -0.04092422      -0.01307770      -0.04288620      -0.61257875       0.20828855      -0.37907296
C        7.09131740      -1.56409916      12.05405802       0.21061387      -0.54095114       0.86604951       2.03683376       0.30932003       1.60436678
H        6.30254983      -4.02816582      10.49656214       0.06198977       0.00977953       0.19854115       0.01532823      -0.35274953      -0.33256772
H        4.68274029      -3.43164598      11.09303922      -0.03100675      -0.11298664       0.05473294      -2.03834414      -0.23263016      -0.98130089
H        5.83427499      -3.79608953      12.22286866      -0.25369733       0.11069702       0.32190061       0.47669634      -0.87426281       0.43975708
H        4.79692639      -1.18206782       9.87194571       0.14583976      -0.14680160      -0.15413889       0.03129010       0.29861826      -0.04889925
H        6.28875426       1.13687498      10.66119340      -0.12562729      -0.16646810       0.20964567      -0.14560024      -0.10393322      -0.07094949
H        7.64973100      -2.11445318      12.77785523      -0.10145230       0.04832905       0.12452042       0.14358945      -0.70769852       0.28055778
C       15.29616265      11.01434207      17.65197508       0.58140246      -0.17168828      -0.28974796      -0.28801087       0.90873873       0.00422162
N       14.35981665      11.91511705      16.88172334       0.93310572      -0.64515700       0.20106155      -1.09232616       0.58681405       0.35107011
C       14.73032889      12.80820429      15.86616162       1.54744845      -0.33294283       0.34901609      -0.58273506       0.49851504       0.13957006
C       13.61923140      13.62604219      15.65685148      -0.17699777      -0.51183532      -0.54077655       1.14823425      -0.42433703      -0.34951714
N       12.56035065      13.21545597      16.40263433       0.06353559      -0.19257173      -0.38369143      -0.51013374      -0.21689495      -0.01886344
C       12.98352480      12.17174571      17.11456997      -0.06244917       1.03002784      -0.61882381       0.87324488       0.56989455       0.58921802
H       16.29010029      -7.88386716      17.16449438      -0.02027130      -0.14161602      -0.07365709      -1.06218624      -0.91408068       0.96119511
H       14.89161684      -9.12361895      17.37821670      -0.12372422      -0.13457943      -0.15803182       0.72537464      -0.21086246       0.52000922
H       15.35200027      11.17473741      18.82541024      -0.31000210      -0.10051662      -0.09415466      -0.42149457      -0.05794081      -2.45085001
H       15.67772955      12.85512208      15.31468838      -0.19022164      -0.07466818       0.03966144      -0.39068890      -0.48578453       0.59962833
H       13.61380997      14.49783697      15.02349548       0.02241497      -0.06928474      -0.34391568      -0.18478391       0.21452713      -0.09992534
H       12.36279521      11.84994742      17.96032729      -0.21079853      -0.04661343       0.28469856       0.77337813      -0.37607661      -0.19533348
C       23.87022647       8.24958530      10.65437218      -0.22470235       0.56143125      -0.30091550       0.37028664      -0.45381081      -0.53089559
N       23.78158777       9.66448861      10.15892432      -0.30695312      -0.33579995      -0.38502576      -0.19698551      -1.13204610      -0.04722787
C       24.67922942      10.56227860      10.63255672       0.02995940      -0.94423421       0.92388094      -0.07606578       3.14408922       0.80321252
C       24.10496784      11.85426413      10.55961677      -0.57985433       0.23314151       0.08501364      -1.09913826      -2.65447664      -1.86543322
N       22.87825422      11.67772585       9.85116877      -0.29136170       1.05724335      -0.19759106       0.84985542       2.30769014       1.12415898
C       22.69976114      10.41546375       9.66209534      -0.11055599      -0.28726308       0.11671883      -0.81420422      -1.83756948      -1.06188655
H       22.90298152       7.72015412      10.48918675      -0.20290053       0.37396784      -0.17397619       0.56819785       0.41423985       0.16170742
H       24.12129024       8.27569731      11.73966351      -0.18365230       0.20630369       0.13863601      -0.39234602       0.10629724      -0.58027828
H       24.71249207       7.66185064      10.14523666       0.21789539      -0.01693249       0.14089288      -1.13279128       0.90296459       0.39460149
H       25.67945667      10.37661728      10.96943579       0.01201732       0.07728742       0.10490088       0.22347361      -0.70080972       0.07710382
H       24.45467778      12.84825973      10.73988991       0.44007153      -0.08385717       0.13152050       0.46773931       0.17438465       0.24501185
H       21.79985406      10.04738785       9.07282948      -0.23931328       0.00761441      -0.13168653       1.54320681      -0.23862344       0.99932402
C        0.60538050      22.34525595       7.02120980      -0.63525499       0.21445293       1.26541254       0.60641485      -0.50375712      -0.95358706
N        1.59548658      21.66537100       7.83014393      -0.08953016       0.03237840       0.09007988       0.94143438      -0.35853314       0.12047452
C        2.58737902      20.81017226       7.40255752      -0.49444396      -1.25844426      -0.04003738      -0.49190122      -1.50294960      -0.35576198
C        3.17535204      20.31002984       8.54256780      -0.98754618       0.30269223      -0.29053974       0.31474262       0.71418071      -1.02978289
N        2.72080551      20.94572718       9.62967995       0.53781311       0.37066011       0.62689568      -2.03067684       1.23308432       0.50755298
C        1.70750823      21.73230933       9.16387935       0.40588101      -0.43508797       0.08367021       0.61917835      -0.31943396       0.47453439
H        1.15965527      22.93170704       6.26121965       0.09859013       0.02850289      -0.42417015      -0.60081929       0.16020349       0.43081215
H        0.01464447      22.91008828       7.71743064      -0.15850765      -0.26538975       0.07168688      -0.56810081       0.72071427      -0.10293460
H        0.02179974      21.59427186       6.46233371      -0.13134069      -0.35283419       0.29393089      -0.02797899       0.33218417       0.28256071
H        2.50518294      20.24651507       6.47708077       0.05500073       0.02952708      -0.13561550       0.08617292       0.54157913      -0.22796679
H        3.75694838      19.44754193       8.61185121      -0.06702319      -0.08309539      -0.18585739       1.13795888      -1.19374847       0.13021374
H        0.99209453      22.27442670       9.73476590       0.33374979      -0.16484430       0.16540838      -0.21674299       0.39441943       0.62358648
C       21.07740798      10.79014448      12.55046062       0.46236074      -1.06759238       0.11116445      -1.70612431      -1.11482656      -0.97209388
N       19.76172378      11.43785887      12.32287457       0.48700283      -0.05243669       0.19657013      -0.95914197       0.05896533       0.51853055
C       18.51273472      10.89144155      12.71678517      -0.34571329       0.80027524       0.82060438       0.49126568       1.81043851      -0.76334345
C       17.56526745      11.91666029      12.48727575      -0.22353445      -0.56968585       0.50357048       1.06640708      -1.01553965       0.34775633
N       18.23509171      13.05147295      12.00820287      -0.38516911      -0.32990605      -0.21380974      -1.03649628      -0.93060416       0.21357553
C       19.50281419      12.70422888      11.87552887       0.47070485      -0.86704202       1.13391704       0.86242574      -0.42023635      -0.35034966
H       20.88582905       9.71531730      12.64164912      -0.10171274      -0.02764659      -0.18625028       0.03820170      -0.07424150      -0.19004932
H       21.56732817      11.07211042      13.42853826       0.00616334       0.17726836      -0.10210881       0.41444817       1.00822175       1.89463830
H       21.76629887      10.97504680      11.76144127      -0.35639322       0.06467019       0.00730485       0.23971356       0.21289866      -0.85592639
H       18.54865452       9.88252753      13.07915194       0.14613855      -0.20793389      -0.17286858      -0.52644813      -0.29360530       0.20105585
H       16.47281613      11.85321335      12.57967762       0.03121727       0.31115443       0.09550076       0.66335809       0.17930210       0.01368597
H       20.20790042      13.22260506      11.24155301      -0.07623132       0.15156050      -0.13321598       0.16307658       0.30722815       0.18531373
C        6.75334205      12.58954607       7.70229515       0.86426784       0.31670432      -0.16834763      -0.47902820      -0.02521562      -1.57819867