640
Lattice="19.152215 0.0 0.0 0.0 19.152215 0.0 0.0 0.0 19.152215" Properties=species:S:1:pos:R:3:momenta:R:3:forces:R:3 energy=-80131.5390625 stress="-0.021337784826755524 -0.002839422784745693 -0.001247604377567768 -0.002839422784745693 -0.019872402772307396 -0.0003877602284774184 -0.001247604377567768 -0.0003877602284774184 -0.018308330327272415" pbc="T T T"
C       16.68544571      -0.65548639      10.95250347      -1.76845205      -0.03774402      -0.16318610      -1.17742598       0.29475194      -0.40272701
C       17.87095504      -0.70516607       9.95470007       0.14203384       1.01655246      -0.41151804      -0.38216284       1.87535250       0.81901568
O       18.69916363       0.21956350       9.93119035      -0.32560287       0.28118503       0.25760250      -0.02712476      -0.31677428       0.07210779
O       18.03539494      -1.72497999       9.13148685      -0.74503309       0.75192116      -2.55963255       0.18840611      -0.72578442      -0.55555451
H       26.09958102       7.83342062      11.78789513      -0.25971427      -0.05753514       0.29984697      -0.24946007       0.12484579      -1.09408796
H       16.80656444      -1.54003086      11.64848659      -0.20457784       0.01380667      -0.03972101      -0.53737617       0.70575726      -0.41282108
H       15.61753852      -0.64084025      10.47519322       0.06673656       0.10830289      -0.15876647       1.93576288      -0.40073395       0.45535529
H       16.68709033       0.32975660      11.51709511       0.14590627      -0.14703603      -0.07127220       0.51115334      -1.13215232      -0.85771137
C       34.81222950      -5.46133457      12.69186522       0.45825265      -0.22942553      -1.11867138      -0.32576060       0.41900468       0.01812738
C       35.77416055      -4.28808142      12.76810820       0.59711875      -0.61381273      -0.53468016      -0.09749794      -1.39264393       0.27888635
O       35.30559351      -3.19348520      12.44163664       0.15391177      -0.56017512      -0.45270286       0.32103926       1.00938606       0.06048796
O       36.96544755      -4.54513070      13.26511978       1.02506116       0.86680673      -1.86463631      -0.19574636       0.41575611      -0.25700670
H       37.43527200      -5.67785604      12.89317033       0.23715332       0.24471319       0.17595637       0.60041797       0.63000625      -0.20827329
H       35.12812109      -6.27733484      13.30668506      -0.10195881      -0.10257997      -0.14185311       0.55658662      -1.01063609       0.24530673
H       34.60241095      -5.80583209      11.64667654       0.03107881      -0.10180753      -0.20128993      -0.20967223       0.40879855       0.78120482
H       33.95370140      -5.05169009      13.25425465       0.13915627       0.30719035       0.12771516      -0.49837568      -0.41700631      -0.82867593
C        6.04766607      -2.46249382      -5.36144052      -0.18913373      -0.42865204       0.61271300       2.26072550      -1.91026306      -1.01210952
C        7.25964186      -1.53640936      -5.29737981      -0.92332719       0.07758295       0.81023945      -0.76173830       1.14460540       1.82140648
O        7.25851303      -0.85576037      -4.11147808       0.92191063       0.67206648      -0.02670560       0.97671592       0.25291395      -0.90152889
O        8.10681556      -1.30249893      -6.15809061       0.22953648       0.06863382       1.35291688       0.02160168      -0.88043344      -0.74714577
H       -4.70814719       1.39793701      -2.37377143       0.04395332       0.10461378       0.03988607      -0.19805378      -0.34031856      -0.49996501
H        6.16828167      -3.20778480      -4.54585143       0.08808994      -0.37622258       0.21767804       0.00175319       0.12100961      -0.42131865
H        6.00251718      -2.98096051      -6.35088527      -0.11342105      -0.26980728       0.20594994       0.16366012       0.26044396       0.77399802
H        5.11338114      -2.02596870      -5.18994597      -0.22023535      -0.22882596       0.27675165      -1.42653942       1.33214319       0.40687835
C       -3.30894669       1.48112751      -5.49182907      -0.39159770       0.64915979      -0.23730008      -0.85639071      -0.79936659      -1.41506088
C       -3.38707795       1.25126843      -4.04754446      -0.37613887       0.26004944       0.27013842      -0.41765338      -2.53462362       2.32376933
O       -2.57718739       0.48623449      -3.37284490      -0.04666355      -0.22068834       0.29273326      -0.56337887       1.60614526      -1.14383233
O       -4.52789407       1.65923261      -3.52857331       1.41918993      -1.36727622      -0.69249533       0.53117090       0.64118999       0.20439112
H       10.77473584       7.44147960     -19.01132336      -0.07499954      -0.07650016      -0.01649461      -0.20495868       1.01303661      -0.82305759
H       -2.90092407       2.44986684      -5.72724605       0.09959691      -0.00545694      -0.28358359       0.03553376       1.00716555      -0.10655093
H       -4.35483744     -17.79662269      -5.94549649      -0.13833347      -0.19249203      -0.30040596       1.43157649       0.45144841       0.49268037
H       -2.63695124     -18.38868712      -5.96956382      -0.06279004       0.29075312       0.15471241      -0.06574786      -0.14326628       0.37466788
C       15.12538375      14.28511017      23.70336322       0.71567300      -0.08077096      -0.74259526       0.10121415      -0.46690509      -0.06174731
C       15.23274793      14.30723064      22.14325325       0.92150803       0.18616757       0.69252721      -0.80906689       1.39175725       1.12250769
O       15.74242545      13.30526925      21.61885654       0.22278232      -1.62596405      -0.98139705       0.51200819      -0.90662068      -0.70129144
O       14.78046190      15.36423151      21.51965896       0.31073301       1.09496356       0.64958172       0.28364992      -0.48328829      -0.07538895
H       22.65313150      36.70358493      27.65051748       0.11761427      -0.05561881       0.06737820       0.27466813      -0.49767730       1.09677923
H       16.14775376      14.03638630      24.05253064       0.34726969      -0.00095601      -0.09663298      -0.31415021       0.33572000       0.11489870
H       14.52254764      13.39471239      24.02123720       0.10072850       0.01236816      -0.30873601       0.21080211       0.62458360      -0.36091816
H       14.74028484      15.19302047      24.23308917       0.18612733       0.10428795      -0.32515514       0.34934765      -0.58082294      -0.72283256
C       24.28654036       9.32133213       5.71397704       0.39777302      -0.63623946       0.48977436       0.43721741       1.83131719      -0.82175398
C       25.78037206       9.47433165       5.49829940      -0.32040234       0.29421671       1.17295855       0.71559262      -0.40481755       1.21619642
O       26.57263589       9.41950033       6.45348259      -0.10145694       0.55004838      -0.36179568      -0.56981426       0.37247580      -1.65581095
O       26.18964827       9.63337989       4.16220988       0.29647400      -1.03927214       0.07702037      -0.21940470      -0.02501398       1.45556235
H       27.15967126       9.83751913       4.20167197      -0.11671878       0.13657331      -0.11324126      -0.23683554      -0.03758648      -0.08495155
H       24.02309408       8.28349641       5.70546968      -0.29512920       0.19076383      -0.45344560      -0.30940253      -0.91761279      -0.04460215
H       23.71116917       9.88653796       4.93985221      -0.10146697      -0.10556947       0.32823439       0.42576373      -0.46716738       0.43259257
H       24.03726261       9.75598047       6.68789125      -0.21261278      -0.28249717       0.02789863       0.10894288      -0.16976711       0.07643032
C       17.19081719      10.54607876      -1.54962381      -0.72943100      -0.86341462      -0.54962587       1.65241933      -1.48743200      -0.60367292
C       16.72926478      10.75068105      -0.16304331       1.03430519       0.23430558      -1.10645441      -1.86081815       1.84738052       0.04744971
O       16.32388296      12.06844607       0.12044773      -0.03187041      -0.05420987      -1.16685729       0.86742300      -0.66598451      -1.29698086
O       16.60513410       9.80698863       0.58132708       0.19149364       0.36380401      -1.19748710       0.00797625      -0.66457576       1.65167463
H       14.81197888      15.32750132       0.99764199       0.10383547       0.14685933      -0.25818304      -0.42921585      -0.35572121       0.01221800
H       16.79128045       9.67849809      -2.13502867      -0.34186214       0.06066726       0.13663249      -0.44978464       0.50420380       0.84537750
H       18.22876996      10.16145522      -1.38545120      -0.04630651      -0.01509821      -0.36182499      -0.16404848       0.53957146      -0.38983366
H       17.19483546      11.37026169      -2.22472190       0.01602688       0.09527503       0.06609170      -0.01747586       1.15570986      -0.25311160
C        1.84955002      23.91742724       2.61627414      -0.54302700      -0.05075716      -0.03221222      -1.44304371       1.33762980      -2.09584618
C        1.52554241      23.17985667       3.82931613       0.17193569      -0.53541709       0.49442007      -1.87848544      -1.27572489       1.83073378
O        1.68551033      23.81318435       4.98148482      -1.43694262      -1.72557032       0.08752842      -0.45014107      -0.92676854       0.94592535
O       20.04403642      22.07915077       3.85379738      -0.25597320      -0.63831425      -1.09232807       1.53645408       1.14271998      -0.47013205
H      -10.46884018      21.55076195      17.73155808       0.22300769       0.11929144      -0.17982450       0.76065528      -0.12245829       0.63609588
H        1.33864206      23.37727825       1.82178198       0.13797772       0.21451166      -0.14075343      -0.23206741      -0.06535068      -0.56690347
H        2.84397729      24.03995251       2.24352036       0.12501293      -0.03544311      -0.04043063       1.34324014      -0.15002687       0.54423606
H        1.38879200      24.95201012       2.58474803      -0.32795337      -0.08985275       0.14188868       0.42613256      -0.92814100       0.33260033
C       -8.86258641       2.93853750      14.41056664      -0.61671419      -0.30296384       0.30892013      -0.54686517      -2.32299566      -1.35660672
C       -9.91630066       2.09078730      15.14181752       0.99580704      -0.03126295      -0.25041490       0.40637320      -0.22034681      -0.65981066
O      -10.46876193       2.61913817      16.12409873      -0.66910420      -0.85556598      -0.94860244      -0.94652420       0.46412858       1.28179657
O      -10.16881735      20.05569651      14.69937426       0.08898503       0.11012229      -0.82042574       0.50667977       0.26556617      -0.28801000
H       -4.38430294      17.73723012       7.58671012       0.29083801      -0.02764723      -0.39368004       0.13595432       0.23976779      -0.33874777
H       -8.68530235       2.53926415      13.36626976      -0.11453176      -0.11260896      -0.01441335      -0.32617629       0.71360481       0.89466608
H       -7.92691443       2.81529431      14.91253268       0.03912854       0.11406618      -0.24669324       0.95015579      -0.24601854       0.68355435
H       -9.11444893       3.96376112      14.48982010      -0.16027181      -0.26512749       0.19680453      -0.36299378       1.26712799      -0.31914818
C       19.22896669       0.61897064       0.65654610      -0.00415981      -0.49234123       0.63827745       0.86728072       3.27440596      -1.68099380
C       37.72805058       0.14429756      -0.59243833      -0.39304058      -0.85808688      -0.20496255      -0.07108954      -2.32161355       1.44645452
O       37.70911339       1.04700202      -1.52408297       0.30658356       1.17350906       0.76223811      -0.05340922       1.08305907      -0.97007608
O       18.09990446      -1.02352200      -0.72582682      -0.06797839       0.44285563      -0.38127215       0.42174330       1.38261402       0.07633424
H       32.10940234       8.32133394       6.43559919      -0.04458151      -0.19236832      -0.38651906       0.28702444       0.04720564       0.29115990
H       20.19809955       1.20216180       0.34696674       0.19390917       0.17597603      -0.06489421      -1.45161939      -1.16059148       0.70962471
H       19.43004660      -0.22552914       1.23296506      -0.14541623      -0.09609251      -0.04896626       0.44146565      -1.00172412       1.64164019
H       18.58571404       1.42742006       1.12310610       0.06084751       0.00759779       0.11261896       0.46297815      -0.93192869      -0.11096753
C       19.49315440      16.15053602       2.47852997      -0.05311404      -0.02744321       0.80938321      -0.91721016       1.38841653       0.25590509
C       20.50322820      16.98711875       3.19965420      -1.07788356       0.91508700      -0.41247442      -0.48116159       1.06503665       1.38929117
O       20.29510632      18.18132716       3.46413199      -0.11733704       1.61154227       0.84875437       0.44600034      -0.93912375      -0.53652138
O       21.59247667      16.36386843       3.73524823       0.62487301       0.44678389      -2.06041569      -0.22816283       2.23935795       0.02386200
H       21.84258728      -6.52206214       4.33513030      -0.23026843       0.21781136       0.13847435       0.26267779      -0.64868665      -0.06462221
H       18.80412913      15.77717897       3.25640548      -0.20999415       0.11930112       0.05538141       0.09384847      -0.12623341      -0.22687691
H       19.97264170      15.33924486       1.97365044      -0.15815578      -0.06015321      -0.06692684      -0.02192515      -0.68538952      -0.68900347
H       18.87521155      16.85280196       1.85574079       0.05436629       0.07360678       0.11933913       0.58158499      -0.79663414       0.12964286
C       -6.22758064      12.86243707      26.53819688      -0.53594372      -0.34933322      -0.35097496       0.14081430       2.21189356       0.61266732
C       -5.28957462      12.30503464      27.56278237       0.35219889      -0.19384273       0.16300216      -1.27269626      -0.28535405       0.02687907
O       -5.65440919      12.29756175       9.58127753      -0.38334567      -1.10379375      -0.05647018       0.53530300      -0.16711229       1.30155730
O       -4.17723783      11.77850356       7.93088553       1.11998769       0.09626652       0.18586092       1.37447774      -0.55279303       0.30640316
H       -1.28181253       0.75951213      16.99272149      -0.14514193       0.07196979      -0.10304710      -0.83216971       0.04351619      -1.25394309
H       -7.02559080      13.46886683      27.13950941       0.19924025      -0.33760721      -0.04523687       1.32870853      -0.98577893      -1.40510476
H       -6.69101393      12.05728470      25.98524833      -0.06198552      -0.20664650      -0.13603335      -0.00556003      -0.13447255      -0.34736422
H       -5.58176707      13.51198912      25.87798306      -0.14837411       0.01404954      -0.11917502      -1.13902330      -0.41232878       0.26310533
C       -2.22704670       5.66135917       6.96964995       0.31612695      -1.03506568       0.49713983      -2.84351492       0.87177849      -0.86578083
C       -1.21163841       6.63846621       6.49029330       0.75759942      -0.76080063      -0.45899506       0.32863688       1.17036772       1.33656144
O       -0.39877960       7.05764152       7.34366404       0.17869919       0.17705552      -0.90267790       0.64777726       0.03120588      -0.54831201
O       -1.31206317       7.13300574       5.24477143      -0.33285628       0.82040925      -0.43344102      -0.26216161      -1.01512861       0.43705446
H        2.59838792       4.63782218      12.38317095      -0.07787991       0.03478359       0.13153978      -0.03505194       0.82944798      -0.13867927
H       -2.24191930       4.81010202       6.32336888      -0.14611048       0.15919973      -0.17113352       0.09774540      -1.04927301      -0.50646883
H       -3.30244156       6.10721313       6.81527753      -0.02301495       0.16831019       0.34497058       1.81319118      -0.53449637       0.37928110
H       -2.17536994       5.36438325       8.02719526       0.11214218       0.14517856      -0.04048066       0.52567101       0.23859048      -0.38406795
C       -5.45862752       7.21004899      20.85311777       0.20442857       0.23192525      -0.17359297      -0.77865767       0.82410407       1.26635730
C       -6.56163953       7.81103822      20.00742323      -1.64012656      -0.01483312      -0.53000777       0.16067928       0.73936248      -0.05813098
O       -6.50046612      28.12227943      19.59737881       0.54611866       0.10429431       1.24897015       0.08144045      -0.07102224       0.17791280
O       -7.63655862       7.04094014      19.80433285      -0.40473573      -0.41867387       0.58257152       0.80020154      -1.58431387       1.16586089
H       18.73329258       7.55566248      24.06335536      -0.38752297       0.09297248      -0.17952305       0.41214794       0.12335354       0.12911487
H       -5.60999347      25.27103973      21.03248169      -0.11949605       0.16738742      -0.16603065       0.53620338       0.89582688      -0.58426774
H       -5.59357785       7.73030601      21.85952664      -0.10216950      -0.05303899       0.12002017       0.01374643      -0.64018059      -0.69887233
H       -4.47336665       7.63012112      20.56615013      -0.20809221      -0.20919124      -0.10638639      -0.33155826      -0.69338787      -0.32698676
C        0.83470546      11.85744782       1.79240834      -0.32861085       0.70541144      -0.26399212       1.38228965      -0.94027704      -0.43508312
C        1.85665356      12.63989380       2.61476561      -0.51778441       0.75365117       0.11688115      -2.94468689      -2.17146516       1.16180873
O        2.19574308      13.77716804      21.51537306       0.85453790       0.13082111      -1.11646540       1.19044650       1.26870883      -0.61247408
O        2.04923615      11.99791566       3.76812611       0.25157627      -1.37092261       0.84214742       1.04887497       0.81968749       0.30271053
H        8.04111766      19.12773279      -4.21763122       0.24135499      -0.27207502      -0.11068667      -0.63800931      -0.51238954       0.15651685
H       -0.13309666      12.29228792       1.78267110      -0.27874638       0.02507526       0.26196889      -1.17112243       0.79920930       0.37889385
H        0.72605216      10.77560078      21.21058512       0.10459601      -0.23940592       0.33317547       0.35783529       0.83197862       0.00862835
H        1.17472089      11.96319513       0.77476370       0.11691154       0.08694468      -0.24672789       0.17453270      -0.28619474      -0.86569464
C        1.26379543      27.65383092      18.42829096      -0.43183412      -0.22679586       0.05597146      -0.14735374      -2.04641366      -0.18096799
C        2.11116353      26.37717457      18.32420082      -0.12878223       0.78176417       0.43066765      -2.07428861       0.36220884       1.24028373
O        3.32310403      26.38994133      18.23118182      -1.27407295       0.85561279       0.56434735       1.05064714      -0.38265312      -0.48425379
O        1.32931486      25.27338406      18.51938376       0.58375423       0.47137982       1.72618203       0.22448611       1.42399955      -0.45172504
H       -2.88994586      12.46669283      20.19119651      -0.07841665       0.02330970      -0.30221019      -0.17549747      -0.92724657       0.09441125
H        0.21695003      27.34726131      18.25039739      -0.33474641       0.02287589       0.24099332       0.26222739       0.54286182      -0.14350319
H        1.67302417      28.37782465      17.75861682       0.20042577      -0.10235056      -0.01340158       0.11742942       0.85158366      -0.53044742
H        1.34237939      27.97579771      19.45148877      -0.02825010      -0.17211830       0.03897739       0.03954036       0.52260244       0.68277502
C        6.66297682       3.39527141      12.71849737      -0.67086015      -0.59487629      -0.57493630      -0.43699968       0.81432444       1.19984508
N        5.66592607       2.40165449      12.25273773       0.00363224       0.99421896      -0.60317805       2.53233886      -0.80197132       0.90836525
C        5.89254655       0.99210149      12.22679869       0.40482355      -0.15375273      -0.37597093      -1.85964620       1.60903549      -1.19809961
C        4.88882666       0.52117606      11.39209081      -0.11345443       0.55425673       0.04092356       0.20180567      -1.32524550      -0.18675861
N        4.05313240       1.53070202      10.97811297       1.33224360       0.73534424       0.11111033       0.67742199       1.17196882      -0.00799166
C        4.62554464       2.65497371      11.48705526      -0.26705402       0.96756665       1.45605176      -2.62678051       0.67150581      -0.92255551
H        6.50110032       4.46267684      12.45122821       0.15088928       0.30091001       0.00339264      -0.89122212      -0.60250521       0.00556292
H        7.60415557       3.21976029      12.27710030       0.04647846      -0.12424359       0.21385647       1.30751050      -0.84374917      -0.75644588
H        6.84596559       3.36657874      13.82294996       0.23335380      -0.03337821      -0.34475501      -0.46494764      -0.24424195      -0.61961490
H        6.47269452       0.50739838      12.94510707       0.15997066      -0.17907503      -0.10562553       0.94710410      -0.35966229       0.78214425
H        4.74484507      -0.52212663      10.98708070      -0.17274033      -0.05315461       0.03618244       0.49489507       1.21800935       0.51118690
H        4.19654192       3.67609863      11.43867156       0.18902544      -0.02721631       0.15419590       0.32351461      -0.89905286      -0.23859480
C       12.65841333      10.16208998      17.08771380      -0.08296326       0.58087581       0.16183610      -0.38702691      -0.31392109      -3.06665182
N       13.81720534       9.76144547      16.20560595       0.97699032      -0.62277940       0.85333930      -1.09088230      -0.26307058       0.05583486
C       14.24208325      10.09940801      14.90271806       1.23397234      -0.49945333       1.24391248       0.81336421      -0.77538931       1.13527548
C       15.31432653       9.22052218      14.67225548      -1.18419894       0.14308393       0.43122767      -1.00872874      -0.20823759       0.22823495
N       15.46811107       8.32614082      15.74186925      -0.34579043      -0.46958804       0.35577647       0.66436571       0.04219161      -1.75849700
C       14.53188001       8.66358610      16.57417721       0.47288872       1.05013548       0.52611579      -0.07473104       0.37209600       3.09519672
H       12.98794499      -8.36978953      17.86806235      -0.03428764      -0.04939946       0.06004948       0.48334441       0.70046997       1.16904354
H       12.13726578      -9.88877767      17.42611528       0.09081626      -0.52777061      -0.05033651       0.36852813       0.11703870       0.19431500
H       11.95604714      10.70847031      16.44358073       0.26817985      -0.21707647      -0.04903945       0.10316064       0.20749409       0.14955556
H       13.72628622      10.82799778      14.30140361      -0.19190520      -0.23986897      -0.05817853      -0.04252625       0.26507074      -0.11244023
H       15.81120933       9.01235260      13.73846080      -0.25295109       0.23814452      -0.16381464       0.23076749       0.20046929      -0.23449039
H       14.49526134       8.35459044      17.66239941       0.33978230       0.02151690      -0.01778021      -0.10058457       0.09760299      -1.39055753
C       26.75741110      17.73501469       9.57015597       1.33965649      -0.23640147      -0.07346021       0.79455298      -0.94860482      -0.46657601
N       27.48456957      16.59777328       8.97227787      -0.32674428      -0.47337844       0.05439572       0.24763885      -1.33882987      -1.22108197
C       28.29481139      16.65108008       7.84494025      -0.10657145       0.77055314       0.67995246       0.82742494       3.62060165      -0.15257245
C       28.93876616      15.45629861       7.70026757       2.19511841       0.62127847       0.18258615      -1.43143511      -0.12092993       1.18481207
N       28.44537802      14.57088660       8.64679541       0.42397534      -0.22773833      -0.51580666      -0.45386350      -0.13537294       0.43093765
C       27.55977326      15.27843153       9.35322238      -0.47882494      -0.64846911      -0.45751811      -0.39590919       0.35220435       0.60731125
H       25.73185372      17.77356697       9.13712761      -0.08855876       0.08603916      -0.23719477       0.51492786       0.11606251       0.89614207
H       27.37375932      18.57164722       9.28862583       0.12424558       0.03543535       0.05722279      -0.19538051       0.84077191      -0.40045983
H       26.92853431      17.67753904      10.64788722      -0.31691811       0.02762783       0.12121107      -0.92077351      -0.11262180       0.27240956
H       28.49893890      17.70582201       7.44585766       0.13522023       0.16287125       0.17265258      -0.18067761      -1.82101679       0.12595960
H       29.73096252      15.18040258       7.07537146       0.05417025       0.14063004       0.34006377       1.06662881      -0.32270008      -0.86686409
H       26.81460529      14.97326533      10.08277298       0.05960433       0.19776542       0.10015747       0.45502776      -0.60737407      -0.00163805
C        4.33741344      23.16236571       6.95939179       0.72343360       0.14922295       0.15554269      -2.31624985       0.59922558      -1.35845256
N        4.20835460      24.42606875       7.66180166       0.16081805       0.16760590      -0.22467244       0.10971099      -0.26441145       0.33254415
C        5.26949626      25.22723854       8.05985243      -0.10070106       0.26819794       0.17171586      -0.31276891      -0.22182763      -0.37613183
C        4.75104767      26.27503133       8.75145551      -0.39620358      -0.19220407       0.27521169       0.47485864       0.44122061       0.97136611
N        3.39661562      26.10290933       8.72019701      -0.61388666      -0.54960663       0.68621361      -0.73507714       1.83333802       1.20272756
C        3.07275131      24.99454617       8.08984054      -0.17382900       0.33549846       0.69248991       1.05121505       0.37093124      -0.10748894
H        3.53999037      22.45612600       7.24105714      -0.07281948       0.24574781      -0.18102963       0.34846866       0.28577182      -0.03616914
H        5.27765059      22.77296492       7.09033484       0.13720812       0.13215754       0.45177782       2.35186386      -1.03755188       0.95413065
H        4.29593950      23.34910257       5.87511047       0.16870282       0.27407040       0.06645672      -0.43849689       0.07031210       0.03043440
H        6.25164642      25.02053716       7.72277380      -0.00918919       0.22401545       0.26690411       0.79311609      -0.16647385      -0.01228637
H        5.20013581      26.99598584       9.44690988       0.06996285      -0.04994428       0.04106063       0.08549154      -0.10151964      -0.43457484
H        2.07709120      24.84708064       7.86257396      -0.37692726      -0.14118769       0.07574636      -1.89974797      -1.08589387      -0.74158120
C       20.73619589       9.47993629      12.97556591       0.33940702       0.82923294       0.36485660      -0.23123515       0.61230695       0.20284492
N       20.22764051      10.75773171      12.47544254       0.82338454       1.19782741      -0.32356202       1.78035378       0.89799970      -0.41798955
C       21.08121571      11.73463145      11.94629565      -0.17030548       0.28605968      -0.97256278      -0.83404195       1.49378586      -1.56514275
C       20.28903465      12.86988835      11.80745923      -0.69846181       0.37413913      -0.92232826      -0.04614681       0.68869853       0.00183564
N       19.09260478      12.67241590      12.44001371       0.16150098       0.63668934      -0.23117900      -0.35191011      -1.96128511       0.71614212
C       19.08663973      11.37147336      12.81098534       0.28850815       0.36304763       0.43057978      -0.52831519       1.07939494      -0.50572979
H       20.13110307       8.66071308      12.61129020       0.00280190       0.24698772       0.00985974      -0.46591240      -0.37237376       0.20246962
H       20.75576081       9.65339517      14.05309380      -0.11522957      -0.20141077      -0.24083898       0.10106769      -0.88083589       0.22585377
H       21.73298962       9.32692596      12.58027890      -0.08369019       0.01480626      -0.29279557       0.31996462       0.22732648      -0.03916889
H       22.08890249      11.66824179      11.51235765      -0.14471743      -0.10398518       0.05828655      -0.28644842      -0.76069331       0.41769993
H       20.27911141      13.76661160      11.16746996       0.11552210      -0.15828044       0.05251224       0.94998461      -0.54189247       0.15342265
H       18.20990453      10.88209725      13.12168301       0.12854934       0.08657894      -0.45002905      -0.88841522      -0.78233564       0.62524068
C        9.76650551      20.92122126      10.24061812      -0.76084371       0.88368004      -0.28841589      -0.55055600      -0.55792862      -3.25687432