640
Lattice="19.152215 0.0 0.0 0.0 19.152215 0.0 0.0 0.0 19.152215" Properties=species:S:1:pos:R:3:momenta:R:3:forces:R:3 energy=-80130.2578125 stress="-0.017975883558392525 0.001814848161302507 -0.0005065043224021792 0.001814848161302507 -0.01511751301586628 0.0013996571069583297 -0.0005065043224021792 0.0013996571069583297 -0.014510199427604675" pbc="T T T"
C       15.66672402       3.94681974      11.70486127      -0.33659246      -0.47405919       0.09145533      -1.92205000      -0.84624213       0.82635283
C       16.64285816       4.51902575      10.77937450       0.24650691      -0.66146122       0.63456222       1.56857467       1.11471093      -1.89082491
O       17.89310730       4.41133479      10.82826769       0.19940820       0.38198060      -0.78704633      -2.21160650      -0.00187257       0.16852999
O       16.04167765       5.31682812       9.78732940      -0.55214380       0.43535178      -0.33826608       0.13871014      -1.47104383       1.76185679
H       24.09800536       6.95440374      11.21627463       0.21893402      -0.09207266       0.01064106       0.73181772       0.77285427      -1.23249006
H       15.75139883       4.43432442      12.67676413       0.13271695       0.01809935       0.13881183       0.33336821      -0.23297845       0.45363879
H       15.71959132       2.84364654      11.81166490      -0.15670646      -0.18202573      -0.32180867       0.52067339       0.43154982       0.05209010
H       14.58687052       4.11886460      11.47948690       0.18684655      -0.04212255       0.58224292       0.66779220       0.21716768      -0.59129119
C       36.59256480      -4.27748711       9.93272061       0.22298388      -0.72302846       0.69255620       1.82616293      -0.38648903      -0.37291408
C       36.81432416      -3.69906485      11.34111966       0.85398182      -0.88064451       0.34709204       1.10175645      -2.41523743      -2.49916840
O       36.10841390      -2.79870509      11.72223934      -1.38891110      -0.07944740       0.25050595      -0.71550941       1.68193662       1.41105640
O       37.83772447      -4.22696692      12.00501999       0.74473524       1.12538494      -1.20832708      -0.50669575       0.88619769       1.09234548
H       38.21819990      -5.02951246      11.52078160      -0.20133314      -0.10550338       0.48926480       0.61315429      -0.42712271      -0.31835777
H       35.55239316      -4.08329858       9.69903218       0.27762900       0.07560810      -0.04606356      -0.38483027      -0.34644502      -0.36198324
H       36.94596776      -5.38730646       9.79874752      -0.21585228      -0.17750182      -0.26943266      -0.92827380       2.08981800       0.22162879
H       37.23613550      -3.60475092       9.25674010       0.20212250       0.40008871       0.11532032      -0.79133517      -0.91951424       0.49974597
C        8.20790222      -5.65711197      -3.76559984       0.38944749      -0.11111294       0.12186124       1.79112864       0.18188179      -0.96599507
C        7.93187413      -4.26775590      -4.44211271       0.00071886      -0.35099969       0.52174458      -1.34646952      -1.55960155       1.09036231
O        6.80964223      -3.75438295      -3.91274687      -1.05011797       0.77390044      -0.40760154       0.58071375      -0.11268419      -0.26826751
O        8.59490510      -3.70313069      -5.29684838      -0.49193720      -0.87107791      -0.22140275       0.79894394       0.11378193      -0.50077289
H       -3.29897209       3.04722952      -3.12505554      -0.35284380      -0.18669208       0.20973347       0.02040380      -0.04598153      -0.30563194
H        7.30440998      -6.14469277      -3.37076021       0.30723337       0.66006635       0.33755559       0.20117843       0.54506010       0.26586965
H        8.97416785      -5.36264418      -2.96886004      -0.08869920      -0.27744587       0.34314264      -0.92352986      -0.93618041      -0.56331164
H        8.68160788      -6.43701267      -4.47457301       0.10676008      -0.04473422      -0.12729092      -0.33366480       1.57965040       0.81178224
C       -0.74021386       4.62745717      -4.83950960      -0.02556957       0.13786286      -0.53214152       1.04693830      -0.30734333      -0.64705646
C       -1.82976262       4.40269745      -3.82731661      -0.72166215       1.41345050      -0.55510943      -0.01406324      -2.32529736       1.29417360
O       -2.10564998       3.10577538      -3.45801577      -0.17599238       0.57167263      -0.34907330       0.04846495       1.94868159      -0.83110100
O       -2.44042232       5.35834237      -3.32868852       0.35687621       0.54697856      -0.03707426      -0.30747092       0.50649959      -0.00253958
H        9.78797694       4.47011968     -16.84847122      -0.01294566      -0.03582087       0.32297028      -0.33305374       0.57531393       0.02050141
H       -1.04500292       4.15763975      -5.79718840       0.27896986       0.33009569       0.08099046      -0.02645931       0.55929029       0.10454891
H        0.27256938     -14.99978450      -4.67946952      -0.14439512       0.16221910       0.10666465      -0.91515028       0.28401756       0.58441132
H       -0.58660460     -13.43048986      -4.92803491       0.18890261      -0.07133877       0.10593657      -0.05478376      -0.57125664      -0.25790966
C       19.07090666      13.31843061      20.56688997      -0.08145920      -0.59657482       0.80824914       0.20076676       0.41905242       1.60634744
C       18.28016271      13.91850037      19.48383955      -0.95942597      -0.47653378       1.10781780      -0.02448952       1.28099012      -0.15151131
O       17.58002126      14.93950342      19.72770141      -0.79436389      -0.81064159       1.06149167      -0.91786265       0.02781686       0.31259620
O       18.45016622      13.48997047      18.28935037       0.01176428      -0.18884197      -0.23654790       0.31583893      -1.13538814      -0.80162984
H       17.98343370      34.04377728      24.25201393       0.12536444      -0.22627832       0.15675062       0.55337143      -0.16266477       0.91377854
H       19.47888355      14.13290262      21.19990149       0.20675819       0.13561559       0.03425550      -0.00627304      -0.23028220      -0.20656407
H       19.87183496      12.78969194      20.12512284       0.15928215      -0.19000217      -0.09908266       1.14838076      -0.96591049      -0.26683691
H       18.50877873      12.68906522      21.27385483      -0.02579230      -0.08670632       0.12999959      -0.33193773       0.01839326      -0.37221757
C       27.08517121       7.71337178       7.22701068      -0.30506052       0.66405934      -0.15171786       2.34148288       1.46925044       1.21340358
C       26.46658522       8.45766008       6.15742157       0.21388030      -1.02415187      -0.42392243      -1.39989007      -0.34223485      -1.50003862
O       27.02939604       9.02008215       5.22912527      -1.03879565       0.19616827      -0.13017158       1.71454751       0.81626767      -0.57388848
O       25.16042361       8.31826369       6.11353664       0.90948712       0.24800050      -0.09623002      -1.78747463      -0.22170097       0.52915931
H       24.74357880       8.81256253       5.27317787       0.13042934      -0.07262763       0.13730160       0.43600166      -0.07963121       0.84168768
H       26.35956217       7.33662764       7.83732591      -0.36807932       0.06588235      -0.21614356      -2.37944221      -1.43224335       1.56436133
H       27.61257527       8.39399745       7.96575080       0.01256643       0.34899447       0.01220266       0.27884501      -0.71571541      -1.21980762
H       27.66041796       6.88854085       6.83288269      -0.06164277      -0.17977539       0.18422750       0.76716667      -0.12439634      -0.05561937
C       17.17809622       9.04123930      -2.52252008       0.32486828      -0.19851864      -0.73004066      -2.03039455      -0.11093068       1.60257554
C       17.44786876      10.51071892      -2.36859708      -1.02940791       0.66372437       0.18847151       0.24390566       0.96996248      -2.78905058
O       17.82941268      10.89699472      -1.18503282       0.32730086      -0.38996729       0.02141032       0.22091514       0.72397065       1.69245648
O       17.49687052      11.32286391      -3.33780596       0.59293219       0.76445131       0.39386415      -0.33733025      -1.23714387       1.02012372
H       17.85611826      14.38899476      -1.83157475      -0.34882303      -0.15327736       0.18591330      -0.32840702      -0.14285383      -0.24047375
H       16.97869947       8.50633134      -1.52042860      -0.07177974       0.40587263       0.04062640       0.53265882       0.96942300      -1.20050621
H       18.08665279       8.66529935      -2.95131598       0.11799311       0.32050355      -0.02722823       0.37286544      -0.84077859      -0.55583733
H       16.23972868       8.84901897      -3.12706417      -0.13531256      -0.39248749      -0.02820134       1.38695312       0.15992682       0.16924608
C        2.59220909      19.69785550       2.04291502      -0.37800933      -0.69533572       0.29015769       0.21725929      -0.55925167      -1.04891610
C        4.04980918      19.53774172       1.86508373       0.01244980      -1.03072586      -0.58081164       2.55488491       0.62046695      -0.19216394
O        4.86691679      20.40486429       2.53856718      -0.29142682       0.53507809      -0.83960636      -1.49933982       1.55328441       1.68010211
O       23.82680905      18.74254535       1.18423111      -0.30389113      -0.07663285      -0.36363370      -0.95199019      -1.12148929      -0.97165871
H      -11.95124194      19.94832769      16.67428176       0.03978579       0.07875811      -0.09204798      -0.59749150       1.34019136       0.86440825
H        2.04872459      19.60122803       1.08259748      -0.01892595       0.00855578      -0.00042197       0.27194080       0.19305991       0.32717043
H        2.44514033      20.61921055       2.56078269       0.50842888       0.13061998      -0.38173788      -0.70977271       0.65191698       0.43092605
H        2.37071563      18.83022449       2.62898290       0.17356651      -0.36671817      -0.07979975      -0.85121369      -0.61532241       0.75339729
C      -14.45107747       0.45068515      14.73055553       0.78112107      -0.57517148       0.12737590      -0.87871319       0.73836410       0.17429596
C      -13.39321108      -0.56276213      14.99215818      -0.70281066       0.88195770      -0.45386428       0.42251277      -1.03032100      -0.62555391
O      -12.33805672      -0.19705249      15.65263291       1.16529412      -0.58757782      -0.03695664       0.49368811      -0.19622350       0.05894233
O      -13.47905803      17.43266188      14.46817918      -0.20318342      -1.00169286      -0.36354240      -0.35542271       0.88895327      -0.05270207
H       -4.00951628      20.08104635       7.03054266       0.10204620       0.19791887       0.03620955       0.16373223       0.61587787      -0.58051223
H      -14.28061645       1.29566197      15.49542746      -0.02302021      -0.25693564      -0.01357516      -0.83958864      -1.01977801      -1.14506269
H      -15.49864096      -0.03368134      14.73011259      -0.06508949      -0.30797408       0.29159836       1.53531957       0.99412721       0.35947689
H      -14.29010936       0.84373864      13.69240221       0.12122388       0.07549417      -0.01106353      -0.10786498      -0.07224652       0.64313018
C       14.70064038      -1.05747012       1.59321358      -1.04049175      -0.59909517      -0.16584253       1.85851324       2.02257419       0.23174566
C       34.86090238       0.06512187       1.01281015      -0.69588369       0.38395794      -0.12977333      -2.00435495      -1.31145525       0.35515898
O       34.99325051       1.15286413       1.65777197      -1.59211719       0.03903536      -0.46208079       0.41770074       1.09410048       1.36617029
O       16.18920901      -0.14192928      -0.11286957      -0.09175639       0.23766357      -0.11992062       1.01475453      -0.52692229      -0.97808617
H       32.98138671       8.25091057       3.68669205      -0.10132609       0.12811105       0.24870169      -0.32520080       0.64186090      -0.73752582
H       14.05451918      -0.71814082       2.41112096       0.04308174       0.11161472       0.07855299       0.09540236       0.23816550      -0.06479275
H       15.31685266      -1.87584947       1.95884480      -0.05494178      -0.02734293      -0.06599925      -0.12551150      -0.45152915      -0.23174548
H       14.14436381      -1.27203059       0.71502978      -0.50024012       0.12580847      -0.26153289      -0.78168881      -0.90359575      -0.66446996
C       22.02492054      15.90340280       3.29527481      -0.73756694       0.05044188       1.52193784      -0.54441392      -0.85178781       0.89267325
C       22.43160415      14.63090149       4.03642810      -0.45017379       0.48744209      -0.00952569      -0.35482922       2.48574519       1.37854028
O       22.08263954      13.51974776       3.44902943      -0.22353100      -0.72419621      -0.48576566       0.52254844      -1.43462753       0.42967534
O       22.94316065      14.73457121       5.17193977      -0.62727937       0.29511752       1.01442628      -0.03822299      -0.40824017      -0.92147923
H       26.62859504      -8.94243863       3.98874707      -0.03840501       0.09035134      -0.02417812      -0.39706331      -0.45261940       0.32406437
H       22.79320595      16.61841173       3.58318183      -0.24760590       0.03860892       0.04371132      -0.20135841       0.53956628      -0.36044842
H       20.99024020      16.19218291       3.64547671      -0.16077070       0.14760397       0.05754635       0.95145947      -0.02977358      -0.19283177
H       21.96217528      15.66903502       2.24741034       0.10533381      -0.12156000       0.05358501       0.10444845       0.25545758      -0.80149555
C       -6.51154502      12.51563378      25.28643482      -0.11288115       0.44753036       0.25282320      -1.05150950       3.23055959      -0.08491743
C       -5.97219334      12.53489467      26.70299416       0.42821142      -0.23940645       0.02982639      -0.86083835       0.25498015       0.71801484
O       -6.31513370      13.21214064       8.54088755       0.13494345      -0.97020591       0.03983082       0.09896106       0.08223844      -1.36655307
O       -5.13264724      11.53653318       7.66581237      -0.54397775       0.36390305       0.39016608       1.85811710      -1.13435960       0.44219631
H       -2.35858553       2.17257320      20.40681051      -0.14629778       0.06875369      -0.04274932      -1.31575286      -0.01191688       0.04737445
H       -7.49530356      12.03167404      25.33392871       0.10501015      -0.15633168      -0.09157892      -0.18845229       0.18291461      -0.26228887
H       -5.89732648      11.98570522      24.61398921      -0.08323173      -0.10546060      -0.16212307       0.97626948      -1.11176658      -0.63864803
H       -6.58265854      13.58220766      24.79358981       0.08101156      -0.31517477      -0.29044093      -0.23614663      -1.77424836       1.37316155
C       -3.84384235       8.00551865       7.82153811      -0.31463717       0.17472072      -0.31893790       2.39303303      -1.21670878       1.60630322
C       -2.39862084       7.46204213       7.33386148      -0.43991957       0.32544551      -0.52502159      -1.51486707      -0.89940679      -1.98228395
O       -2.11604772       7.37384390       6.04056438       0.53744038       1.53506838       0.23830689      -0.58249283       0.78339165       3.64254713
O       -1.68212432       7.01371713       8.32224787       0.88021814      -0.90104604       0.47050661      -0.23118299       0.65611166      -0.94690180
H        7.77147983       8.65980824      16.29155777      -0.12097954       0.21054994      -0.30823912       0.96381086      -0.24401666       0.15973902
H       -4.21748552       7.32596250       8.66909893       0.00694072       0.29981532      -0.00479976       0.45649868       0.94030654      -1.22115779
H       -4.61434025       8.21725428       7.12419342       0.06212351       0.23533895      -0.00455688      -0.36621287      -0.05613594      -1.23110509
H       -3.55695675       8.95321622       8.27259496       0.20439178      -0.17461804       0.12196004      -0.35759085       0.37726352       0.32192126
C       -7.94704742       2.01713836      23.10698488      -1.55333212      -0.80910291      -0.10023699       1.12760842       0.56778753      -1.62792778
C       -8.23845636       3.47375182      22.68541907      -0.11897071       0.97672490       0.34246615      -0.50309211       0.97300696       1.35340536
O       -7.93871031      23.65651295      23.35516178       0.64197491      -0.49678578      -0.33812068      -0.29847276      -2.06871700      -1.31366384
O       -9.02390205       3.53884425      21.57669053       0.35615455       0.11204631      -0.72088627       0.84710598      -0.44288874       0.30799735
H       17.88668765       6.13182561      24.47972940       0.09916553       0.18179205       0.25681136      -0.81509709       2.39037275       1.10962224
H       -7.09531810      20.82899108      22.45239963       0.08753956       0.26325075       0.15256458      -0.46562070       0.20114183       0.19872789
H       -8.75518078       1.29742045      22.84027387      -0.30201094      -0.00643819      -0.02147942       0.45625362       0.58967829       0.84331620
H       -7.46613370       2.01647929      24.08729161       0.24007244      -0.11352004      -0.01025588      -0.66774303      -0.29144347       0.40933359
C        2.89403018      10.06945873       3.27380836       0.69091418       0.77288622      -1.23515543       1.11367917      -0.14484489      -0.67938018
C        4.10545467      10.46774760       4.11935599       0.20067145      -0.42637828       0.61161506      -1.12767625      -1.08134544       0.78811598
O        3.99190026      11.56181474      23.92130153       0.78764113       0.41748894      -0.31701975       0.51785994       0.06162518      -0.17933327
O        5.02549039       9.58745592       4.26013115       0.04470866       0.46870879       1.07014648       0.11126423       0.81474602      -1.03927982
H        6.55340502      16.30759192      -4.35694778       0.25167429      -0.03834383       0.16695289      -0.26334041      -0.07484815       0.30620974
H        3.09474025       9.25075334       2.55919013       0.09389591      -0.00517718       0.02307473       0.01036784      -0.12342186       0.55650032
H        2.61271740      10.89967220      21.80641215       0.18656875      -0.08815785       0.07138429      -0.56786531       0.77689296      -0.20936778
H        2.11452881       9.82187418       3.97624237      -0.24784329       0.16129703       0.10275620      -0.65213788      -0.21461122       0.06300285
C        2.05322005      30.34786821      17.51545437      -1.26620333       0.59351192      -0.37664644      -0.57701159      -2.59353852      -2.20932841
C        2.24893286      29.03069881      18.22797782      -0.08967954      -0.24831990       0.37640053       0.62630010      -0.86784685       1.49628651
O        1.41999711      28.51065692      18.97102676      -0.24521760      -0.24021398       0.71091352      -0.73727477       0.17337888      -0.12783888
O        3.44028302      28.35589550      18.08966796       0.75064120      -0.17056773       0.28287576      -0.37765467       1.60321116      -0.90156513
H       -1.03353734      11.87854976      17.90698585      -0.23661289       0.43257449      -0.13083931      -0.47400671      -0.21110530       0.32150072
H        2.45380456      31.17191640      18.00817542       0.12459016      -0.03700425       0.09004786       0.94494832       1.46707511       1.09085917
H        0.95174107      30.48329384      17.43434126       0.00098893       0.23485004       0.23067035       0.76848185       0.09066232      -0.25314897
H        2.55551235      30.17771879      16.51103071       0.05671041       0.40581215       0.36257899      -0.74489355       0.70884377       0.77351296
C        7.15429500      -2.53630400      10.89252130       0.46721422      -0.67457604       0.32112839      -0.71134722       0.97287422      -0.25503963
N        6.45797069      -1.12063987      10.79210093       0.07992611       1.32481059       0.04717502       1.60403180      -4.19562769       0.63967955
C        7.18941696      -0.00775238      10.75442662      -0.79212910       0.50782194      -0.33818531       0.41847926       3.24103117      -1.94304454
C        6.22197337       1.08287745      10.54186049      -1.27491460      -0.06683300      -0.48797554       1.14106059      -3.70105219       2.28331137
N        4.96363312       0.48963907      10.76293942      -0.07201439       0.70283015       0.46295829       0.50257283       1.25356400      -1.02454257
C        5.13908822      -0.82415620      10.83341887       0.22515189       1.15473879      -1.19985856      -0.69474506       0.53351337      -0.14445806
H        6.44534669      -3.33044683      10.56375388      -0.03310039       0.10886078      -0.42051257       0.03696917       0.43779942       0.77102703
H        7.64394763      -2.62377712      11.88102428      -0.20313865       0.02821379      -0.06109148      -0.77451015      -0.18688105      -0.07162192
H        7.97961515      -2.67692856      10.18375804      -0.14138174      -0.04150808      -0.21679077       0.04582652       0.83507091      -0.38508749
H        8.31397380      -0.07562517      10.74539767      -0.22042567       0.30561764      -0.13191979      -1.42932642       0.27061778       0.05678736
H        6.42933817       2.13384317      10.58592916       0.01400370      -0.02345790      -0.24988372      -0.29352668       0.42278719      -0.15993915
H        4.31656835      -1.53140081      10.74178159      -0.24467019       0.06615565      -0.34416109       0.29952875      -0.11994648       0.11167149
C       12.20229936      13.53970530      16.23023564       0.49841338      -0.78235403       0.30296452       0.33946031      -3.00956917       2.36977792
N       12.60195195      12.08309567      16.22791175       1.04008896       0.03346436       0.39501459      -0.99333978       0.42231411      -0.87626135
C       13.74870757      11.46129448      16.69025863      -1.04486986      -0.24948877       0.58626613       0.04793225       0.61054832      -0.51306456
C       13.52182967      10.14461321      16.38039771      -0.62596418       0.56807479       0.43510354       0.57174563      -1.47900724       0.51334012
N       12.28493271       9.87214142      15.77786860       0.37813941       0.01750558       0.55488105       1.65534997       0.65549397       0.53300679
C       11.80013173      11.08714723      15.67228823      -0.76110248       0.59094364       0.41906876      -1.68450332       1.94951224      -0.41037440
H       11.55548237      -5.47710852      15.41406041       0.08076527       0.34461433       0.10230580      -0.62891263       0.73956555      -1.16742873
H       13.07594150      -5.03526833      16.35229066       0.27000867      -0.29890761       0.02487993       1.15360272       1.06375718      -0.69012284
H       11.70349144      13.63433413      17.19432440       0.13565035      -0.10838750       0.09559838      -0.68441856       0.46021068       0.02338627
H       14.68982327      12.01941171      16.89364206       0.26288149      -0.23007841       0.05995938      -0.84258157      -0.51336968       0.09315711
H       14.26394290       9.38298289      16.54675518      -0.02506376       0.03074820      -0.16036616      -0.06166875      -0.41966209      -0.01269224
H       10.87104366      11.37811718      15.10591623      -0.18134328       0.36341717      -0.16258462       0.99857444      -0.49957475       0.72092891
C       27.25524378      11.10617367       8.26010424       0.28485549      -0.21254904       1.13589207       1.45509517      -0.10612991      -1.23892069
N       26.21338622      12.06617657       8.41015415      -0.09223195       0.16178676      -1.15523204      -0.29131100       0.00373882       0.96510625
C       25.08746058      12.12806609       7.58815153       0.20930491       0.09535689      -0.48035638       1.33672523       1.84913576       1.77224815
C       24.49068989      13.30968418       8.00785930      -0.43756272      -0.60687555      -0.71300788      -0.35038674       0.48337284      -0.04059517
N       25.21373836      13.91227840       9.09006576       0.17111132      -0.93047981       1.15748193      -2.62058115       0.63196081      -1.15981126
C       26.20270103      13.11791146       9.35905453      -0.07017674      -0.22400314      -0.75753180       0.73710310      -1.62003958      -1.86586928
H       28.19369190      11.62298558       8.48744633      -0.21836616      -0.27362693       0.05789840       0.17260337      -0.41019890       0.69298816
H       27.43312042      10.84732268       7.19573589       0.37873970       0.22661789       0.22854694      -0.59909511       0.05585236       0.25088865
H       27.04953011      10.19876599       8.82076481       0.13149446      -0.28949065       0.22698762       0.28418353      -0.00985759       0.34767231
H       24.95293600      11.41530591       6.79562326       0.11797400      -0.07815768       0.36304718      -0.31591636      -0.11073494      -0.14915669
H       23.58546205      13.72851481       7.51763265       0.00008737      -0.18872741      -0.01561888       0.74302572       0.00239184       0.64173973
H       26.99283482      13.30358402      10.10251407      -0.27360887       0.36328909      -0.22231047      -0.42480770      -0.45918232      -0.46004379
C       -0.49798116      22.27729148       7.65530570       0.43710165       0.51524111      -0.99119450      -1.56254840      -2.31812215       1.21324027
N        0.70806702      21.91615997       8.40007231      -0.72915871      -0.57975948       0.04103353       0.77623451       0.71703112       0.64816070
C        1.24451688      20.64616350       8.65306657       0.07649280       0.15555657       0.69857257       0.49573058       2.19905519       1.21376336
C        2.22616698      20.87227093       9.62331328      -0.01875239      -0.52503588      -0.06386149      -1.83273268      -0.69224405      -2.30799770
N        2.31617936      22.18402423       9.90474568      -1.02775539       0.46376173       0.66015243      -1.24879229       0.35439941      -1.57176888
C        1.40700090      22.82944557       9.15361834       0.13605235      -1.66409149       1.02044132      -0.51803100      -0.63832951       0.21532243
H       -1.14952391      21.33867579       7.54373270       0.11898840       0.19150520       0.08034407       1.02873600       1.18059051       0.06373747
H       -0.31411774      22.72760310       6.72304613       0.19874926      -0.16663368       0.02972382       0.55322629       0.57134521      -1.29713023
H       -1.10199773      22.94111091       8.27162336       0.09787550      -0.01427598      -0.14695923       0.18948404       0.20171092       0.16765761
H        0.94223787      19.79697106       8.09891400      -0.10075537      -0.11332017       0.14892638      -0.25671589      -0.85743523      -0.26782489
H        2.86411874      20.13507140       9.93763588      -0.14468675      -0.06577032       0.19934359       1.62449980      -1.41891253       1.07536674
H        1.10759171      23.84194496       9.35977875       0.26695640       0.18779052      -0.15023484      -0.12581128       0.18528248      -0.29647216
C       22.34498368      10.69665027       9.32296714       0.67257072      -0.12755845      -0.17080345      -2.60326242      -1.37291837       0.48804909
N       21.29780746      11.32605916      10.17236149       0.41712079       0.76005361      -0.16275912       1.99570012      -0.48410511      -0.47167075
C       20.83094580      10.81075578      11.36320751      -0.88810903       0.24549267      -0.46705470       0.95392585      -1.75808859      -0.55866069
C       19.88222859      11.65995990      11.75759009       0.29616208      -0.90667726       0.01769132      -1.45686865       2.00078249       2.23315454
N       19.93519112      12.79950998      10.99264536      -0.23668860       1.58547075       0.48072482      -1.61091590       0.96549881       0.24922679
C       20.76585383      12.54916325      10.01961452       1.07659361       0.26522663      -0.37178486       0.58612430       0.98137796      -2.57413530
H       23.29259725      11.10718070       9.40092195       0.18691503      -0.16747304       0.01599211       1.72043586       1.91582024      -0.27557483
H       21.91415543      10.56180138       8.31195461       0.06934417      -0.25711248       0.00185353       0.71377420       0.00677161       0.41088796
H       22.52987607       9.75243078       9.81835589      -0.14448966       0.07682160      -0.17884375      -0.35663450      -0.88920969      -0.41125906
H       21.36429247      10.02087445      11.88010904       0.02606599       0.02429430       0.00188679      -0.12989831      -0.15643126      -0.09936184
H       19.23485279      11.73758384      12.64230358      -0.06891181      -0.07036832       0.11613412       0.31722876      -0.67865837      -0.27395982
H       20.92044846      13.14069758       9.06410959      -0.04179434      -0.09085272       0.15698935      -0.21026725      -0.89119941       1.61861992
C        8.77831936      14.98730404       6.60034296      -0.54496596      -0.30186752      -0.53286364      -0.39748570       0.94389057      -1.22080863