640
Lattice="19.152215 0.0 0.0 0.0 19.152215 0.0 0.0 0.0 19.152215" Properties=species:S:1:pos:R:3:momenta:R:3:forces:R:3 energy=-80131.015625 stress="-0.01771644502878189 -0.0026325250510126352 0.002556591061875224 -0.0026325250510126352 -0.018571944907307625 0.0007581368554383516 0.002556591061875224 0.0007581368554383516 -0.016315031796693802" pbc="T T T"
C       16.12461179       3.18257281      11.97473154       0.46933764      -1.18282959       0.99641288       0.45346963       0.30430806       0.75524187
C       16.83848308       2.11037909      11.14842152      -0.61258153      -0.04934360      -0.35818767       0.03914070       1.50842845       0.08767512
O       18.05449457       2.01706989      11.16427161      -0.33466340      -1.29699007      -0.26866801       0.91384226      -0.44816417       0.42563295
O       16.08073906       1.46040810      10.28489138       0.06967639       0.63904562       0.05977641      -2.51217532       0.87694740       1.00557196
H       25.94878141       7.54436262      11.10863288       0.03018151       0.06587362      -0.06778755       0.04452991       1.73602664      -0.39818078
H       15.19657722       2.97604419      12.51993035       0.27644265       0.06505850       0.05693977      -0.15564862      -0.52538371      -0.59110010
H       15.98819812       4.09817762      11.39385300       0.32296276       0.36764290      -0.03429571      -0.35036558      -0.00102594      -0.46588331
H       16.80273054       3.51907660      12.76918992       0.08389847       0.06670784      -0.00670008       0.30690470      -0.24142383      -0.04915511
C       35.73258339      -4.80656350      12.26460347      -0.23910499       0.02636659       1.39492809       0.76502419       0.90807378      -0.18646447
C       35.54964303      -5.75682121      13.40190081      -0.54250587      -0.12242990       0.36363153      -0.58994842      -0.27480084      -0.52010322
O       34.59596569      -5.45503870      14.14979785      -0.95784691      -0.05599348       1.16798282      -0.20015651      -0.51122856       1.40769351
O       36.24325013      -6.85397317      13.42052790      -0.57036893      -0.90046107      -1.41732228       0.25336391       0.11809266       0.49587521
H       37.48895057      -7.24780367      12.75514409      -0.19372350       0.00081561      -0.03123889       0.09116979      -0.15602347      -0.27065372
H       35.05250038      -5.12207606      11.48704753       0.25499377       0.04653940       0.52931504      -0.20074567      -0.08425492      -0.72157049
H       36.76188184      -4.93277155      11.93558071       0.07573680       0.10832218       0.27010823       0.15812784       0.49479288      -0.49724853
H       35.43671118      -3.74485503      12.49669711       0.11193079      -0.15916755       0.09596428       0.48517916      -0.93514311       0.10368495
C        6.32007005      -3.61497431      -7.60546736       0.02672098      -0.22958676       0.78489571       1.06328523       0.33645314      -0.91231382
C        7.46384026      -2.62172711      -7.38404602       0.22586605      -1.28174092      -0.23270911      -2.47416067      -0.63280165      -0.28635120
O        7.81014759      -2.62394844      -6.09432242      -0.34742571      -0.57345683       0.07449120       0.52488947       0.14602256      -0.60757601
O        7.75958699      -1.86024360      -8.31332508      -0.72053012      -1.30543580       1.45366613       1.03293610       0.06010270       1.16194987
H       -3.41026668       0.33021619      -1.45852492      -0.06423153      -0.05216694       0.02411209       0.34502780      -0.54622442      -0.36251125
H        5.89517196      -3.98284518      -6.64095434       0.16749038       0.10703379      -0.09644882       0.34050602       0.09675077      -1.09361756
H        6.78432719      -4.40207444      -8.26815143       0.09361211      -0.02525922       0.01257061      -0.79675341       0.26600236       0.69030058
H        5.65691991      -2.97837498      -8.24281830      -0.31974080       0.14675522       0.01090662      -0.26758906      -0.98163855       0.46181083
C       -3.50690173       0.95751846      -3.70851457      -0.32485793      -1.19766515      -0.33917784       0.39355808       1.10719061      -2.28345490
C       -3.14357559      -0.41847827      -3.25560948       0.17295792       0.25153449      -0.17955632       0.35057971      -0.28277910      -2.50947857
O       -2.90392614      -1.28972259      -4.11871023       0.66231519      -0.05189180       0.14766902      -0.15573487       0.05237782       0.09101051
O       -2.99429335      -0.59304266      -2.00831295       0.71780548       0.15678980      -0.84200628      -0.27138489       0.04302549       2.98366404
H        9.53421681       6.32816898     -20.55067693      -0.13994982       0.17360919       0.13577084       0.12822892       0.43123102       1.28614402
H       -3.72676315       0.92009254      -4.81016151      -0.09688765       0.07668068       0.13139847       0.16905671       0.06150721       0.85867411
H       -2.63664863     -17.52306846      -3.59729113      -0.28592478      -0.16153788       0.00569191       0.02074721      -0.17953807      -0.06174930
H       -4.30224669     -17.65560401      -3.22359757      -0.22239177      -0.09193940      -0.16350952      -0.58518589      -0.23964980       0.63842279
C       13.91763720      18.37149531      22.88422625      -0.63846694      -1.16091052       0.96976349      -0.91392034      -1.06029177      -0.45615235
C       14.74337562      17.12681089      22.48741835       0.05078634      -0.26144256      -0.48782046       0.30154717       1.55774093       0.61232883
O       15.34176927      16.44654492      23.32445471       0.92858387       0.28528568      -0.14305606       0.02125299      -0.29282087      -0.12305855
O       14.80066241      16.98888494      21.19292958       0.58886345      -0.36890986       0.06149847       0.69959021      -1.26535141      -1.66813827
H       22.22522107      36.56204750      28.51240283       0.14925914       0.11251723       0.01525687       0.50969529       0.47626591      -0.22486283
H       13.91776548      18.20610896      23.95552365      -0.09641695      -0.14698764       0.16505040      -0.91457486       0.40093163       0.57875174
H       12.89237441      18.28695103      22.34269062      -0.03266084      -0.19661192      -0.30883757       1.49693048       0.40518647       1.22300947
H       14.37671222      19.37025430      22.73323237       0.11693314       0.11274904       0.12181369       0.01164059      -0.60935163      -0.41139340
C       25.96388530       8.38032505       6.75657461      -0.48295902      -0.29114307       0.61759524       1.25361562       0.81377679       0.21412757
C       26.49650747       9.27173063       5.63532268      -0.74778424       0.61493501      -0.23882050       1.08756709      -0.57297862       1.32503295
O       26.86558536       8.74366435       4.60325388      -0.44548320      -0.11532221      -0.44401017       0.11600325      -0.59119749      -2.33242059
O       26.72234886      10.54965516       5.92494440       0.03460487      -0.14375971      -0.81479251      -0.85778069       0.44647628       0.35090876
H       27.00103518      11.20613767       5.09327921       0.25172866      -0.06203104       0.10093450       0.00421464      -0.18467641       0.10026467
H       25.78427020       7.35863651       6.49549962      -0.18646607      -0.23598977      -0.10291549      -0.78848433      -0.49153242      -0.98582733
H       25.18051202       8.89226866       7.24431439      -0.06864994       0.12199990       0.23520000      -1.50740552       0.31876996       0.76517183
H       26.70817216       8.19962784       7.53458280      -0.12210835       0.32725397      -0.04993381       0.64612710       0.64680880       0.24796414
C       20.07243407      12.64588940       3.23129846      -0.56065157      -0.63907927      -0.75113540      -0.22249901       1.48802018      -0.77260053
C       19.03179095      12.66920392       2.11391871       0.18803888       0.18404546      -0.27948760       0.26328909       0.59656781      -0.41041422
O       17.78733990      12.97209358       2.57480232       0.77029360      -0.81065832      -0.49355169       0.15897489      -0.05842671       1.22001779
O       19.22908606      12.55639812       0.90313142      -1.10697521      -0.79824198       1.79596050       0.23757625      -0.49177843       0.39001596
H       15.56770067      16.21106610       1.71476968       0.05781918      -0.28401109       0.05869010      -0.53909183       0.78865880       0.27645975
H       19.63684004      13.19730701       4.11199244      -0.34585955       0.30462881       0.24839407       0.56016499      -0.69113982      -0.51036501
H       20.96649361      13.24708031       2.82062634      -0.18405674       0.07038397       0.13318785      -1.14905190      -1.30762208       0.87507594
H       20.30954198      11.60136798       3.48270022       0.04511129      -0.49184125       0.00190994       0.19247492       0.15434791       0.08789062
C        1.81723888      23.73098532       2.33507263      -0.12665453      -0.04212043      -1.69220985       3.39847851      -0.02354565      -2.07706618
C        0.73130091      23.43010373       3.22560810       0.08791545      -0.23034064      -0.05636277      -1.81449783      -0.23785388      -1.25414574
O       -0.30995933      22.74036829       2.56785373      -0.19451398       0.59127550      -0.03024310       0.29058206      -0.09381825       0.72372359
O       19.77037062      23.81182522       4.36611252      -0.46792681      -0.86405456      -0.84681308      -0.51569480      -0.63853478       0.60280216
H       -9.59909028      20.67099449      16.49748778      -0.14942129       0.08697121       0.04207342       0.31454298      -1.52111292      -0.96821666
H        2.61177480      24.37516253       2.73527574       0.17066962       0.03426162       0.19793073      -0.22597328      -0.15415147       0.70064664
H        1.60897484      24.27143279       1.39110798       0.10576193       0.09055355      -0.06355215      -0.69251347      -0.37046218       0.23079556
H        2.39189702      22.80265076       2.00233035       0.14055707      -0.04265845       0.02782722      -0.72886944       0.78716350       0.34160066
C      -10.53827602      -1.23864711      16.14393105      -1.64849755      -0.54563406      -0.15883963      -1.92121565      -0.22737360      -1.60779738
C       -9.80616564      -0.43346057      15.08962623      -0.82959886       0.41599927       0.88736351      -0.43947238       1.12134278       0.98963881
O       -9.74202150      -0.84172852      13.92058656       0.99420754      -0.44332016       0.44928300       0.26794711      -0.82089424      -2.08297849
O       -9.32010791      19.87113846      15.40406051       0.46452782      -0.17495971      -1.14078974       0.33003622      -0.24770975      -0.14466429
H       -3.63336998      19.61645931       7.47807970       0.19164731       0.22652488      -0.35936304      -0.59951532       0.99122787      -0.44945276
H      -11.28379692      -0.59233628      16.63452984      -0.04359027       0.01718750      -0.05110978       0.09228776      -0.11433083       0.04508775
H       -9.84423743      -1.53787917      16.85784592      -0.20208361       0.00695087       0.17471035       1.28822446      -0.74564886       1.72236931
H      -11.06640627      -2.15754965      15.71820127       0.13861676      -0.03793938      -0.09770324       0.71659935       1.17807484       0.44856766
C       20.11251755      -0.15426619      -0.59939308       0.64458574       0.04188469      -0.24381033       0.13007218      -0.41851562      -1.54467499
C       38.58276884       1.18826692      -0.64254757      -1.36207000       0.40538969      -0.63794809       0.75302732       0.63408923       0.87165397
O       38.33801531       1.91823790       0.34474158       0.29820132      -0.17767039       1.45277118       0.12344330      -0.62868762       0.17108476
O       19.23363338       1.61333146      -1.85932199      -0.19192248       0.18505233      -1.12784193      -0.30631641      -0.87019861      -1.05581415
H       34.63591565       9.46597292       3.40889818       0.09155098       0.04725121       0.20763227      -0.43239540      -0.21280494       0.26160678
H       19.92730413      -0.60314409      -1.63155313       0.22132422      -0.13582195      -0.14765296       0.51540297       0.08722782       1.36234534
H       19.84097238      -0.83038530       0.19675357       0.18615493      -0.01381663       0.01150232      -0.86593592      -0.07009052       0.43053031
H       21.19870009      -0.07579625      -0.40648167      -0.08940273       0.13088620       0.01076584      -0.14754067       0.41016683      -0.42808810
C       19.01711468      17.90383978       3.86615090      -0.78672819      -0.60277449       0.45370642       1.43247128      -2.15885997       0.89146334
C       19.57527505      18.50217702       5.15164740       0.91230161       1.22707744       0.48437665       0.19451854      -2.72060633       0.37411720
O       19.89989405      19.64988271       5.17766154       0.88793727      -1.35709873       0.81292222       0.60911226       2.23994946       0.58874160
O       19.79050312      17.66770046       6.28302026       0.14294242       0.10050712      -0.34567198       0.60417289       3.33718967      -1.38045430
H       22.98965025      -4.69332907       2.83486806      -0.23458438      -0.13844845      -0.02408555       0.15824814      -0.63362503      -0.28391817
H       19.24923015      18.64692826       3.12241339      -0.24936411       0.01418316       0.07125369      -0.48119611       0.25460336      -0.67542112
H       17.97292929      17.63941224       4.04342621       0.10875324       0.09652679      -0.09748048      -0.40322787       0.03777346      -0.41512129
H       19.58018991      16.91873766       3.60100611      -0.12859909       0.19804304      -0.07612396      -0.91197956       1.44587243       0.42891014
C       -6.83933460      14.97233748      25.69768764      -0.03980976       0.62482639       0.76341601      -0.95023853       0.81759357       0.65283847
C       -6.29629492      13.79358031      26.46096324      -0.84008378      -0.80367404       1.15109505       1.89045191      -1.78196573      -0.01359892
O       -6.26702698      12.59805988       6.88779577       0.95228410       0.41374545      -1.07350223      -0.75582671       2.22471189       0.24882305
O       -5.65522932      14.15147973       8.46775375       1.21574793       1.00644377       1.01344632      -0.61444771       0.03798604      -0.61732543
H       -0.26751853       2.61695731      17.19643374       0.06206459       0.08689622       0.17337836       0.41218659       0.63500941       0.09956074
H       -7.92221480      15.10096211      25.75555513       0.09912895       0.06438386      -0.31471346      -0.57560104      -0.47031590       0.42102966
H       -6.72271737      15.02449972      24.64480836      -0.12781739      -0.24687325       0.12026994       0.78272879      -0.76734924      -1.40963662
H       -6.49322907      15.94245526      26.03629487       0.08631353      -0.36788069      -0.12757456       0.58716428       0.18582053       0.58965683
C       -2.10682883       8.36353506       7.29238430       0.51951761      -0.27318269       0.55916391       1.32971334       1.00857317      -1.18826985
C       -0.85906218       8.71439828       6.35153421       0.04442663       1.18077185      -1.13543573       0.06884956      -1.12647259       0.78860086
O       -0.57970297       9.93771385       6.09365036       0.21651334       0.40933155       1.05783383       0.58375680      -1.99173951       0.32153279
O       -0.17303988       7.62739458       5.98390479      -0.38680899      -0.08532954      -0.55457057      -1.90901542       2.39568353       0.49235636
H        1.47114358       5.21767121      11.92055407       0.05255502      -0.02354755      -0.24261708       0.23141384      -0.01131696      -0.48700920
H       -2.18335942       9.00583419       8.17403581       0.18766942       0.05005946      -0.21171143       0.45489901      -0.05798744       0.12779790
H       -2.11353022       7.31233794       7.49845485      -0.02168489      -0.22012665       0.06033654       0.25770396      -0.62208861       0.46202698
H       -2.99688107       8.56528549       6.72911552       0.01002957       0.16555903      -0.28068820      -0.64152783       0.14709245      -0.62580168
C       -9.08176007       8.48476373      20.97593532      -0.61107379      -0.34967669      -0.02711377      -2.42363906      -1.63313222      -1.02274394
C       -9.51546712       7.96020539      19.53377574      -0.09109135       0.78184455      -0.33148854       2.82864022      -2.77380753       1.85646343
O      -10.13959368      27.87040249      18.80053739       0.83286278      -0.04567120      -0.05012818      -1.69757891       1.46814990      -1.76742768
O       -9.06503502       6.76097206      19.17910434      -0.62366067      -1.17059127       0.30308220      -1.13066757       1.57664895       0.35707480
H       20.24350618       7.71300894      24.75970799       0.12739722       0.13096675       0.27338989      -0.58259463       0.32880193       0.33984265
H       -8.76892599      28.63987191      20.81888183       0.19326156      -0.00565759      -0.17439176       1.06299782       0.98966265       0.19048420
H       -8.43849438       7.72064318      21.40992593       0.32533289       0.01421721       0.06494854       0.44849521       0.57228547       0.13852793
H      -10.01130724       8.56957470      21.60205051       0.04503003      -0.13064241      -0.15116028       0.58516496      -0.26050407      -0.28757471
C        1.79696340      15.44106104       0.42610213      -0.09408389       0.95277067       1.02805194      -1.11336684      -0.29102597      -1.42342067
C        2.79864891      15.45210651       1.55640201      -0.21326734      -0.21499704      -0.01878384       1.03511143       1.80728447       0.05042195
O        3.19353244      16.52053978      21.27147436      -0.07199585       0.29239142       1.47223188      -1.08818674      -1.70412016      -0.86193526
O        3.31593270      14.26577474       1.87808112       0.10028100       0.10797527      -0.37911546       0.22358935       0.42806506       0.62624854
H        8.39198425      17.32215125      -5.90317348       0.32994166      -0.17022300       0.07772993       0.77039003       0.48873669       0.75092006
H        2.24435686      15.18266246      -0.64581822       0.15533200       0.23027815      -0.00067920      -0.55653358       0.49258977       2.24702883
H        1.35140522      16.48742441      19.52048594       0.12140636       0.18889425      -0.10717011       0.46300584      -1.31197953      -0.06338620
H        0.94513045      14.66501810       0.60239796      -0.41237160      -0.00419664       0.05302955       1.45596695       1.20947504      -0.25596172
C        3.91740989      27.29873050      18.65050288       0.68258175       0.59056292      -0.07351370       2.56993079       0.66475582      -0.36456341
C        4.34110557      25.85861145      18.31624375      -0.34449757      -0.31711254       0.01060330      -0.50381386       0.38372564       1.86790895
O        5.43231440      25.59891793      17.81596728       0.55940421      -0.70374787      -0.78536488       0.47524503       0.11108142      -0.61575842
O        3.47493989      24.93548698      18.70689623       0.19501077       0.40921424       0.03946106      -0.64081621       0.42757210      -0.09911942
H       -2.02996182      12.70465445      21.08947111      -0.00143887       0.32559709      -0.34962358      -0.25396138      -0.00674212      -0.84887064
H        4.73043358      27.85803828      19.26485480      -0.18450374      -0.24675092      -0.01689381      -1.08707082      -1.10941482      -1.02257228
H        2.97112929      27.58936058      19.03688542      -0.09970355       0.04200806       0.14864227      -1.05725813      -0.63789928       0.65628791
H        3.93644160      27.72415127      17.64982963       0.13149556      -0.02847102       0.12994291       0.14541714       0.73667765      -0.39468288
C        6.29208649       2.46064403      11.56803302       0.67811062      -0.39047050      -0.53663315       0.15306659      -1.36012435      -2.01829767
N        5.77373105       1.63951806      12.75241987       0.55318966       0.33574867       0.57083507      -0.11479640       2.38497496      -1.19821167
C        6.49094731       0.89903104      13.68683427      -0.27237906      -0.69574025       1.16927644      -2.88670778      -1.35069227      -0.55944693
C        5.45388949       0.15231706      14.29765060       0.25491262       0.11379632       0.11458402       2.70942783      -1.05692029       2.76269484
N        4.21408344       0.53512747      13.89741035       1.38468531       0.15998611       0.21348591      -0.57746607      -0.82312244       1.06388569
C        4.40708567       1.48909998      13.03087338       0.01897714       0.28786218      -0.38266953       0.91550833       0.82444972      -1.71883190
H        7.34260347       2.08767739      11.30171173      -0.25739105       0.25595386      -0.06816119      -1.24494934       0.61324477       0.69284379
H        6.30009569       3.56796393      11.73184001       0.12428088      -0.13815982      -0.21063796      -0.06682795      -0.92116666       0.24383843
H        5.71558435       2.25591960      10.51811316      -0.00711654       0.02608123      -0.08912075       0.90838563       0.32235026       2.75225759
H        7.53381182       0.69376781      13.70804469       0.09942341       0.15814922       0.06525101       0.73922074       0.33093759      -0.18920356
H        5.71132035      -0.57258705      15.20908873       0.20493717       0.24640059       0.24750287      -1.18484819       1.54761767      -2.19434714
H        3.63153198       2.13387611      12.57224244       0.00386383       0.05340791       0.21783331       0.67483968      -0.33841699       0.19208282
C       12.56378232       9.62125289      18.36301569      -0.42461194       0.21591035       0.01295233      -0.87082797      -0.72378415      -0.59070897
N       13.66201312       9.76094423      17.44620647       0.68016139      -0.85051456      -0.31286701       0.28569722       2.65006948       0.20596284
C       14.27007786      10.94661687      16.80885969       0.89404365       0.57335808       0.12311845      -0.86018044      -3.60082150       0.77503949
C       15.17410510      10.31737982      16.00302219       0.11948671      -0.53053915       1.03432797       1.39388514      -0.34828430      -1.44857812
N       15.13046427       8.91109648      16.06316585       0.72289433      -0.38809514       0.58191177       1.26283383       0.96580899      -0.05240667
C       14.27693007       8.64021662      17.03503620      -0.66658333      -0.30521830      -0.11884238       0.26241511       0.87128532      -1.48757386
H       12.97352815     -10.21799674      19.11745351       0.09899469       0.00499026      -0.32174808      -0.94132960       0.10837163       0.30020651
H       11.71744091      -9.95141846      17.76326329      -0.18736134       0.15039258       0.33093604       0.32851627      -0.25936896       0.84827060
H       12.18851907      10.53975918      18.76480080       0.17443098       0.07452402      -0.00801720       0.28278619       0.77129501       0.50466394
H       13.87640045      11.94361561      16.85176284      -0.12316631      -0.05905524       0.23865463      -0.14851576       0.18717676       0.32382238
H       15.95433379      10.78503103      15.37620041      -0.05525233      -0.28799904      -0.03702615      -0.52709347      -0.11496913       0.30101818
H       14.04613211       7.65893201      17.39640327       0.10277238      -0.24481159       0.13670771      -0.17792866      -0.38061443       0.21445662
C       29.63026655      10.41139748       8.03824466      -0.05394460      -0.71797433      -0.51217191       2.13274384      -0.44552526      -2.73156929
N       29.03836863      11.36942050       8.91025299      -0.64149266       0.89366102       0.10221025      -0.59176028       1.03633070       1.92919254
C       29.53081517      12.47011575       9.66084308       0.14146787      -0.20613333       0.27300586      -0.42688990      -0.42803961      -0.43708092
C       28.45330702      12.93724636      10.40820356      -0.08910155       0.22706466      -1.01591399       1.15626574       0.32872024       0.49600631
N       27.31608046      12.25098427      10.06719296      -0.24964041       0.39453731       0.08156954      -0.35625851      -0.01821423       0.52852732
C       27.70790260      11.32155009       9.21146369      -0.08005041      -0.53171038      -0.21410791       0.18278944       0.49485505      -0.11796591
H       30.77666171      10.49647421       7.96082325      -0.23541660       0.29241065      -0.03602711      -1.57539546       0.01048397       0.57518435
H       29.29010867      10.66698702       6.99642313       0.16680910      -0.04257098       0.01165152       0.19079739      -0.29752642       0.70497388
H       29.34722835       9.33840750       8.16312776       0.07878085      -0.17986972       0.00378398      -0.00107652       0.76203305       0.69298017
H       30.41162763      13.00426920       9.35761420      -0.34144604       0.21179291      -0.01080557       0.45350972      -0.12694493       0.08387098
H       28.54526554      13.63820548      11.28361577      -0.03669004      -0.25895792      -0.20881363      -0.40990901      -0.71641797      -1.09483051
H       27.06778611      10.68719933       8.65263996      -0.13299512      -0.29037938       0.02660022      -0.66470474      -0.60013759      -0.27710965
C        2.78708227      23.73614184       6.73649663       0.31356314      -0.77244440       0.10344546      -0.31025305      -0.58468485      -0.61469638
N        3.45440823      24.32247060       7.83994065      -1.24736036      -0.94567898       0.39473945       0.94448799       1.84982634       3.35210896
C        4.54332071      23.86890787       8.59934055      -0.04495253      -0.07261006      -0.20923887      -0.65313375      -0.10097873      -1.21583831
C        4.81370243      24.78510506       9.53895428       0.16126312      -0.00659997      -2.02179691      -0.07041071      -0.03028625       0.37812835
N        3.93617027      25.82422363       9.47789170       0.29645510      -0.03816405       0.89577533      -0.63947266      -1.72262144      -1.66714466
C        3.12266689      25.50346750       8.44260969       0.89697160       0.40199510       0.66132857      -0.89312297       0.75312912      -0.52914160
H        2.74555211      24.45118697       5.95229904      -0.10358467       0.08804940      -0.32415190       0.74429727       0.50500923      -1.32474852
H        1.71844658      23.66774429       6.87510408       0.38236467      -0.15506396      -0.13475915      -0.48785269      -0.73198724       0.77175403
H        3.27227583      22.79159157       6.47151204      -0.22001715       0.20653224      -0.12768270      -0.25908917       0.08854854      -0.25793347
H        5.06895234      22.99544989       8.36310822       0.05384044       0.34169550       0.15891329       0.72577012      -1.27759576      -0.43917069
H        5.54826806      24.75443507      10.26982447       0.08038317       0.20236451      -0.02224808       1.36534953      -0.03767151       1.23214519
H        2.27474868      26.09830993       8.12887871       0.17601218       0.20836839      -0.12604851       0.08327794       0.00367048      -0.11147186
C       20.35164182       8.73990300       9.99690403      -0.92539293      -0.10249704      -0.69046392       0.75203836       1.11655450      -0.46390980
N       19.77833620      10.01514466      10.53232506      -0.47434909       0.58980684       0.13369848       0.20756435      -0.85666305       0.42682624
C       19.82525001      11.27384249       9.96792148      -1.14776805      -0.25801191      -0.41313378       0.32188648       0.08133775      -1.16834342
C       19.51669764      12.19249263      10.91782150       0.56808518      -0.12505515       0.39862158       0.31803742      -0.06360662       0.55679727
N       19.17408483      11.48905592      12.06567522      -0.17065687       0.09772090      -0.02665478      -0.83137822      -0.23915976       0.02823257
C       19.37164959      10.15248504      11.81137759       0.65233403       0.26892044       0.09173575      -0.07487041       0.97454631       0.91857600
H       19.61872755       7.95302287       9.97786517      -0.52404607       0.11603130       0.09326761      -0.71484923      -0.16348889       0.00308000
H       21.17802840       8.37296584      10.67949767       0.46618745       0.07168599       0.08903961      -0.61347741       0.75984108      -0.96371186
H       20.65508294       9.01067927       8.94238151      -0.32435225       0.34083851      -0.39968209       0.13320366      -0.61195266       1.21695578
H       20.04426274      11.48681732       8.92835420       0.14364805      -0.10793743       0.25109388       0.10124578      -0.47573733       0.05422187
H       19.77814448      13.25375652      10.87028345      -0.08485196       0.13640610       0.32194248      -0.53496468      -0.22173917       0.23977816
H       19.47523115       9.38490351      12.60429672      -0.03009952      -0.21981206       0.02431740      -0.23544364       0.38277459      -0.59180331
C       12.90856055      20.17543973      12.77071111      -0.20756073      -0.00632276       0.65958458       2.18572354       0.40146953      -0.72385347