640
Lattice="19.152215 0.0 0.0 0.0 19.152215 0.0 0.0 0.0 19.152215" Properties=species:S:1:pos:R:3:momenta:R:3:forces:R:3 energy=-80129.875 stress="-0.02021159417927265 0.0038846174720674753 -0.0013116764603182673 0.0038846174720674753 -0.02349400892853737 -0.0003124713257420808 -0.0013116764603182673 -0.0003124713257420808 -0.01749901846051216" pbc="T T T"
C       17.03114898       6.85213680      11.85687156       0.07229716      -0.14934417      -0.69426199      -1.21795213      -1.69210160      -2.15563011
C       18.07655352       6.56111691      10.77741297      -0.11679961       0.18166669      -0.15897735       1.10828519      -0.36428672       1.95034420
O       18.02552122       5.64797774       9.95739134      -0.42601170      -1.23121134      -0.13233998      -0.11665690       0.39172411      -0.27218363
O       19.19862613       7.32118671      11.03788291      -0.42369902      -0.32483395       0.72986956      -0.61097908      -1.03081512      -0.75582862
H       26.00201911       5.62336695       7.95850577       0.23690380       0.06074014       0.31644525      -0.01142944       0.01249290      -0.03297013
H       17.18753068       6.42083190      12.84621978      -0.11706461      -0.02531611       0.28632400       0.41777968      -0.18852969       0.00860548
H       16.07080058       6.45219752      11.42566396       0.03547921       0.06539252      -0.29492379       0.52871746       0.43925086       0.69015181
H       17.01667281       7.89667467      11.89268673       0.16777618      -0.13399257       0.40466626      -0.43078953       1.96521592       0.54044002
C       37.74051293      -5.39432452      10.00272202       0.04526134      -0.45778184      -0.82625574      -0.24589276      -2.02212143      -0.07115340
C       36.22343953      -5.57428100      10.33488812       0.50571681       0.09329804      -0.25468667       0.87205249       1.54267049      -0.41503945
O       35.43217910      -4.86264399       9.66493970      -1.12780448      -0.33018065       0.68119776       0.26499158      -1.36720359       0.88635808
O       35.86527408      -6.32739365      11.37922387       0.10836455       0.67879146      -0.66761294      -0.91655660       0.55655032      -0.81696367
H       36.60714752      -6.84185354      11.91428742       0.09736771      -0.34982959      -0.25389559       0.37174478      -0.17874765       0.07777894
H       38.42351331      -6.09884098      10.56483062      -0.05094928      -0.37293560       0.14272831      -0.88610709       0.17185789      -0.89264560
H       38.08608040      -4.47106791      10.40643448      -0.14070294       0.11116555       0.14426263       0.10156687       1.47282112      -0.01183128
H       37.85112489      -5.43440067       8.87318657      -0.15686466       0.28711156       0.06050143       0.09831330       0.14158681       1.33636487
C        9.40361569      -6.31059295      -1.72265782      -0.01832512      -0.15425208       0.03545527       0.06533810       1.29839993       2.28499866
C        9.28461257      -4.82168764      -1.34871040      -0.20806818      -0.28601120       0.57187546      -0.13983110      -0.08462059       0.24804887
O        8.44990061      -4.55065949      -0.30725263       0.00984969       0.01496196      -0.11026125       0.53664613      -0.33696336      -0.21889365
O        9.91958048      -3.94858531      -1.91869150       0.64663932      -1.45822956      -1.02303035      -0.00437564       0.40438896      -0.42448026
H       -4.28164060       4.97867387      -3.48087364       0.26065508       0.05912488      -0.01580416       1.44830894      -0.60022455       1.19706893
H        8.41121048      -6.70363867      -1.73221733       0.16172420       0.13512835       0.17342357      -0.96481693      -0.47764611      -0.52741480
H        9.82435422      -6.75490006      -0.80029496       0.28587409      -0.09592341      -0.23196720       0.32987127      -0.24432872      -0.31868494
H       10.02100703      -6.49177024      -2.59024123       0.01259230       0.06239312       0.26662005      -0.08527710       0.21283357      -0.12994105
C       -0.53782999       4.31029467      -3.28581718       0.61476196       0.69831566       0.22527817       1.89122665       0.95371968       0.84500468
C       -1.92770492       4.85958943      -2.94949869       0.74519634       0.03010420       0.44874148       1.27891612      -0.02797192       1.63009477
O       -2.86556973       4.04205769      -2.96626977       0.26188799      -1.08573401      -0.85658656      -1.53129137      -0.91552359      -0.84036434
O       -2.02178923       6.06269018      -2.51423499      -0.53696465       0.40773479      -0.59615811       1.02566957       0.29369336      -0.77756691
H       12.75559299       1.88537260     -17.23530242      -0.00171278      -0.24714859       0.15824111      -0.74969602       0.75594050      -1.22084510
H        0.21866746       5.12768758      -3.38217721      -0.09505900      -0.01583325      -0.08480918      -0.69816482      -0.14369316      -0.47988999
H       -0.57418962     -15.43028106      -4.18982074      -0.07456346      -0.16819444       0.19846787       0.07443725      -0.37843770      -0.43879873
H        0.03814853     -15.43179729      -2.48593421      -0.01739210      -0.33297784       0.29870301      -1.53492999       0.43335706      -0.62428576
C       18.40163371      17.64941954      19.65342183      -0.45758706      -0.81250450       0.54533261      -1.49938869      -0.31380266      -0.06173973
C       18.21564620      16.14809526      19.84382396      -0.66815981      -0.46545949      -0.56126291       1.49051642      -0.57210994      -0.26461861
O       17.23120900      15.52971403      19.40178896      -0.23771675      -0.15035124      -0.50551531       0.67477590       0.21494973       0.53592074
O       19.29521954      15.47470825      20.45152652       0.28659298       0.62377986       1.48710746      -2.39308619       2.15939474      -0.92879629
H       18.73997865      32.85722640      24.02540875       0.33486328      -0.16294500       0.05758192      -0.06916070      -0.19518614       0.68011600
H       17.41349277      17.98755647      19.21307012      -0.07363693       0.01267983       0.14596291       1.08309078      -0.04216149       0.11612892
H       19.26131482      17.98230501      19.03733913       0.20273088       0.19342003      -0.31657745      -0.27849722      -0.51811963       0.20988601
H       18.44906112      18.12704284      20.63378702      -0.25452509      -0.01353754      -0.11081956       0.26965049       0.04353101       0.09106764
C       22.05591131      12.78041384      10.35726429      -0.49232530      -0.03483389       0.16532157      -0.83646226       0.30827892       0.84044474
C       22.04089700      11.40007459       9.84705284      -1.29037071      -0.56848109      -0.51858462       2.26558971       0.06416559       0.43174469
O       21.33082488      11.08140559       8.92229671       0.23866902       0.95708570      -0.66440671      -1.72315288      -1.06973934      -1.55421174
O       22.99899314      10.61648247      10.38799369       0.06500727       0.70313416      -0.57849008      -1.02528584      -0.92616946      -0.42217553
H       22.86437496       9.63256764       9.99916853      -0.07659963       0.11875672      -0.05546112       0.09215957       1.06220770       0.68765908
H       21.82921024      12.66924314      11.43452633       0.06315703       0.20042703      -0.15881427      -0.30939421       0.65873474      -0.14843173
H       21.40995975      13.44904188       9.76006549       0.16797985       0.13003670      -0.14369973       0.07242783      -0.29617703       0.60190773
H       23.05054070      13.14307713      10.33090654       0.21916008      -0.13559640      -0.26204267       1.38917279       0.56650901      -0.04989729
C       21.73214110      11.94938432       0.74092344       0.44644363      -0.00085225       0.26930983      -0.61041915      -1.22414982       0.00441992
C       20.76044228      12.92666564       0.14053590      -0.68198591      -0.93589672      -1.53914354      -0.64164269      -0.24930453      -0.07771236
O       19.59332196      13.10430513       0.71729299       0.26496952      -0.62921226       1.35090906       1.81852853      -0.52920270      -1.49162698
O       21.23395534      13.42653333      -0.95458254       0.68347711       0.60615606       0.62612429      -1.06762838       0.60975665       0.41042066
H       20.26601992      13.90156768      -1.91539516       0.11978600      -0.01351664       0.21057600      -0.08806199      -0.31799310       0.61243963
H       22.01184372      11.15423800      -0.02370892      -0.10014045      -0.30552265      -0.18802770      -0.35207367       0.94988447       1.02180243
H       21.28681573      11.53567697       1.64253896       0.10525351       0.25193441      -0.18472944      -0.11719997      -0.62295765      -0.12705912
H       22.63181238      12.44263411       1.07648381       0.26507406      -0.04751104       0.26133929       0.41677070       0.28080207      -0.16581532
C       -1.76484409      18.49237160       4.41491193      -1.53022777       0.33740952       0.55531260       0.98302543       0.62520874      -0.49508432
C       -0.96105790      19.59208497       3.76508371      -0.14993227       0.24263775      -0.44720273      -0.28631926       0.66743034       0.93607253
O       -0.37341554      20.44343896       4.64252794       1.96451629       0.23665112      -0.19225563      -0.55875969      -0.58457226      -0.16311419
O       18.21527924      19.83030838       2.56307137      -0.28693234      -0.67277004       0.03344591       0.06973478      -0.21894050      -0.49463430
H      -11.05280826      21.12505124      15.24463297       0.27481593       0.02570055       0.03767058       0.09783779       0.43828905      -0.17722046
H       -2.28869054      18.01319164       3.62376062       0.06171533       0.19947778       0.35295129      -0.49534929      -0.87139249      -0.67123777
H       -2.47853901      18.91579429       5.07992033      -0.27487931       0.14750681       0.14089656      -0.76888847       0.58539319       0.83944780
H       -1.13968438      17.82403900       4.98591684       0.10897739      -0.26629213      -0.15921501       0.39292347      -0.46981791       0.15459463
C       -9.45717480      -1.12578349      15.37090973      -0.12718780      -0.01076823      -0.73654861      -1.16614020       0.06662461       0.29764920
C      -10.73633599      -0.34463136      14.83987622       0.01047820      -0.38305752       1.36847728       2.79048538       0.07438189       0.98190951
O      -10.50403200       0.89742143      14.66689197       1.45914374       0.49947016      -0.28823593       0.40243256       0.55867481      -0.09137458
O      -11.79419010      18.24393081      14.61297604       0.29581641       1.02059825      -0.60873561      -1.96878338      -1.37213564      -0.18318404
H       -4.43621958      20.26592812       6.84466758      -0.15453984      -0.01186238      -0.08146724      -0.74302620      -0.01885927       0.92427588
H       -9.10430502      -0.66238151      16.33784979      -0.09998050      -0.03607907      -0.26702354      -0.25299737      -0.71667683      -0.89486289
H       -8.69863059      -1.03128929      14.62146052       0.09262613       0.29248380       0.20008280       0.97194779       0.58839059      -0.53987771
H       -9.59607540      -2.22216420      15.38452416      -0.19248122       0.10097401      -0.01554728      -0.34650022       0.37628013       0.73762757
C       11.15134441      -0.13904587       1.89577777      -0.19736118      -0.85037863      -0.26492447       0.68851280       0.47023198       1.74745893
C       31.62354763       0.12889522       2.71941446       0.17056624       0.12107264       1.23205205      -0.30559582      -1.66528475       0.93717575
O       32.23494430       1.31758800       2.63158532      -0.64809745      -0.91626210       0.08090194       0.76254308      -0.16718349       0.50631386
O       12.91159180      -0.68938329       3.55716790      -0.27039471      -0.28509441       0.14433865      -0.67511451       0.80453688      -1.41059852
H       34.03508756       7.79639107       5.31133520      -0.12865443      -0.09388315       0.01634940       0.09326765      -0.22262189       0.61063778
H       10.52531622       0.76108862       1.96294520      -0.05666486       0.26549354       0.09381229      -0.08577687       0.02902736       0.22106403
H       10.69471987      -0.95691735       2.48171460       0.13162146       0.26291479      -0.09752786      -0.17648026       0.09517126      -0.63143015
H       11.21370561      -0.32870782       0.82936860      -0.38667189      -0.09810777       0.06594152       0.59509361      -0.43794715      -0.21422845
C       18.94527014      17.71143714       8.21910509       0.84541973      -0.91605425       0.57297278       1.67298937       1.68909287      -3.30517626
C       20.40395284      17.41662858       7.67472226      -0.59386719       0.49045408      -0.77564157      -2.98754811      -0.39560702       0.77935368
O       20.79423798      17.98462355       6.66477105       0.81551304       0.64192623      -0.75617474       1.19760275       0.43066975      -1.28167617
O       20.98265046      16.45161938       8.33757293      -0.79589066       0.31397314       0.87405184       0.64450860      -0.38391984       0.50072545
H       21.99913007      -2.94611770       8.03727005       0.05589711       0.04964490      -0.04536134      -0.24662443       0.09740615      -0.03465527
H       18.98836721      17.54627442       9.23360419      -0.12923779       0.22564007       0.05282483      -0.35067168      -0.19717412       2.36855984
H       18.24923415      17.06383673       7.70171621       0.30082501      -0.16069608      -0.08907318      -0.30893153      -0.55387121      -0.04271629
H       18.66094865      18.76261085       7.88500595      -0.03553269       0.13652272       0.07077086       0.31297985      -1.09863186       0.70462954
C       -3.72598419      11.35847852      25.36557624       1.44754194       1.25343849      -0.73216753      -0.12295824      -0.17395151      -0.24867272
C       -4.52077609      11.60490718      24.09026276       0.46973613       0.17735027      -0.21337149       0.16599220      -0.96977794      -0.77431649
O       -5.73071048      11.75162292       4.98270634      -0.50379497      -0.12448821      -2.14642459      -0.82512736       0.47341579       0.63776094
O       -3.98036028      11.58955785       3.69917695       0.79238245       0.55596162       0.27208171       1.63356924      -0.17723611       0.06321216
H       -4.87674467       2.99633558      18.73244231       0.28766807      -0.06700663      -0.04519708       0.11917388       0.10400929      -0.30473471
H       -2.66997730      11.62551765      25.21267424       0.28351564       0.07802136      -0.38217656      -0.43724522       0.33684722       0.23673961
H       -3.78618246      10.31461011      25.76942835      -0.03336154       0.16685946      -0.06192480      -0.06531125       0.47589099      -0.74920684
H       -4.25083201      11.98412323      26.09184787       0.04244384       0.12621937       0.21992861       0.46364692       0.22993021       0.24505271
C        3.27217810       6.41940981       8.02124132      -0.42939725       0.14566113      -0.10337837       1.23101652       0.53692192      -0.58891493
C        3.11113624       7.09470308       9.34215771       0.60215190      -1.32768980      -1.23652410      -0.44831768      -0.22146010       0.62781262
O        2.42910696       6.38545470      10.21682715       0.67600693      -0.96977439      -0.03124426       0.66984332       0.95514369      -0.09621537
O        3.63192157       8.24226126       9.52255544      -0.40637347       0.84972395       1.12231705      -0.54883879      -1.45424283      -0.04229453
H        5.40647575      11.02370198      16.90292591      -0.00519394       0.18010299      -0.15178115      -0.53070164       0.89090520       0.51496404
H        2.40168696       5.88443969       7.65816058      -0.25393756      -0.36455910      -0.21963357      -0.14626017      -0.75088286       0.38120055
H        4.24473100       5.83818560       8.05257477       0.00722331       0.09354349       0.28403286      -1.08193612       0.49300182      -0.40272927
H        3.33913960       7.26870533       7.33871429      -0.05246427      -0.35432397       0.12080202       0.73130339      -0.02543756      -0.53697282
C       -8.48765095       3.32343363      17.87793915      -0.57942233       0.99872797       0.17044123       1.43575668       0.00043356      -0.91119438
C       -7.15169511       2.93144595      18.54441295       0.40682064       0.43879620      -0.56187883      -0.23239338       0.63094854       1.62107241
O       -6.11572616      21.82261906      17.82804825       0.99041648       0.05391087       0.26609306      -0.67013341       0.00803247      -0.26942873
O       -7.13242113       2.93179934      19.83155022      -0.10926557      -0.01632276       1.52273765       0.00709811      -0.27683938      -0.77569640
H       16.16609770      11.33589834      22.77614891       0.09931049      -0.15841243       0.11259622      -1.18427920       0.13641340       0.32346860
H       -9.21744775      23.00471050      18.47194160      -0.11602152       0.15788179       0.08004346       0.11991939       0.56845713       0.59001613
H       -8.95880072       2.39259639      17.65914498       0.16008596      -0.09695557       0.26820693      -0.65158290      -1.10536313      -0.57371330
H       -8.27124378       3.82264971      16.91066816      -0.16006593       0.08020575      -0.22068703      -0.27996489      -0.03551280       0.46624434
C        2.95079729      15.91809012       2.29410209      -0.28736042       0.58156286      -0.39070660       1.30829418      -0.08577359       0.63867319
C        2.46168793      16.86561438       3.44036753      -0.33624557      -0.67161479      -1.02033111       0.62708604      -2.92079091      -1.04846311
O        1.83462936      16.17701416      23.61183492      -0.59820557       1.46824558      -0.12440675       0.30463076       1.88794720       0.21880281
O        2.77065573      18.03153202       3.51731054      -0.02452550      -0.25818509       0.64422705       0.01328313       1.28437090       0.10080475
H        8.41231468      15.61313385      -0.07894178      -0.22057560       0.02142513       0.07925781      -0.46966189      -0.65549582      -0.48614827
H        3.38429229      14.95314594       2.71059511       0.29942999       0.01006635       0.12895799      -0.39819023       1.06025696      -0.07076476
H        3.75854879      16.42905877      20.85599037      -0.15263363       0.06967926       0.11055270      -0.62162960      -0.22731377       0.52213401
H        2.20316381      15.57036728       1.58081391       0.03328591       0.15301088       0.06321931      -0.46096417       0.35983306       0.13220513
C        2.40578836      27.63784523      18.17080998      -1.85802281       0.58360210       1.44909809       0.51151663       1.00560117      -0.80926383
C        2.15440641      26.14327720      18.23363335       0.22793754      -1.37336891      -0.32021703      -2.96871376      -2.07072067       1.11226320
O        1.13910625      25.60861401      18.79454812       0.27514760      -0.44942000      -0.67101489       1.76682627       1.56344271      -0.75711459
O        3.05877516      25.39015805      17.62430699      -0.66207985      -0.88414371       0.60181774       1.35727334       0.74091494      -0.98154747
H        0.06055031      14.50964695      20.14567168      -0.15297041      -0.04427018       0.05873679       0.30405676      -0.75173521      -0.01341075
H        3.40643978      27.83023071      18.61449815       0.07197002       0.34523834      -0.09589298      -0.31965137       0.01222511      -0.19881281
H        1.66086089      28.30989741      18.66557084       0.15412822       0.13991676      -0.28408772       0.35922307      -1.06104457      -0.10792470
H        2.47187071      28.03418683      17.10485894      -0.21063950       0.07441333      -0.05595867       0.04324190      -0.73636806       0.96641576
C        6.25904438      -0.55682517      11.73333323       0.85953197      -0.85040938       0.16402528       0.23276553      -0.66835344       2.37222743
N        7.36588667      -1.35631639      11.17863553      -0.36911456      -0.12219023      -1.30237918      -1.59805071       0.17876704      -1.29693007
C        8.36501734      -1.96370180      11.83496285      -0.29943719      -0.58028222       0.79524539       1.88396883      -0.23793665       3.51842976
C        9.48933699      -1.83817247      11.03313215       0.37971625       0.36718690      -0.71181816      -0.29659915      -1.53116763       0.42669648
N        9.08210209      -1.43579334       9.80433873      -0.50390338       0.20175638      -0.18539007       0.30497861       0.61775196      -0.25796765
C        7.80549383      -1.11217902       9.92650855      -0.03945860      -0.41133134       0.56972426      -0.78389561       0.60201544      -1.49296641
H        6.48767136       0.44892470      11.37803199       0.08057403       0.03751668       0.22109655      -0.62094140       0.26370910      -0.08948630
H        6.44991188      -0.56499181      12.89391279      -0.10537344       0.04316299      -0.30086931      -0.59350890       0.11529458      -1.97128057
H        5.23156927      -0.96589426      11.50891246      -0.08419710      -0.02327849      -0.06354235       1.09668219       0.50529164      -0.03744489
H        8.26472248      -2.27413623      12.94069099      -0.21824659      -0.22724228      -0.14907652       0.09211252       0.48735604      -2.10105324
H       10.51447822      -2.11438230      11.15723262       0.08973611      -0.14581950      -0.48179369       0.40495723      -0.10144702       0.45644820
H        7.20300192      -0.65648196       9.13418606      -0.16345340       0.00238349       0.24742444       0.15775889      -0.24524626       0.36666024
C       12.38609727      13.70237246      11.95069690      -0.24628603       0.06632261       0.54814719       1.77596176       0.03694570       2.76465034
N       12.88703475      15.02664763      12.44370307      -0.41891029      -1.17190799      -0.08259822      -0.11981156      -0.74621701      -0.69718891
C       14.17701650      15.43674228      12.11212538       0.30651155       1.02938199       0.86443599      -0.69550687      -2.38263345      -0.39097363
C       14.39217317      16.52496837      12.87238518       0.09407604       0.98751882      -0.04409816       1.41858196       2.97322607       0.42557463
N       13.23450713      16.88862267      13.53704202       1.38171791       0.07004762       0.42100034       0.43906105       1.27830517       0.82110864
C       12.32768956      15.98747717      13.27916428      -0.04920505       0.23742907      -0.45468032       1.30733263      -1.84083045      -1.40963924
H       11.33586310      -5.48080649      12.15400897       0.03420992       0.17751731       0.12623930      -0.68667591      -0.21790960      -0.49006420
H       12.91760328      -6.31772964      12.48134772      -0.17221519      -0.14398486      -0.02534666      -0.77544141       1.06238759      -0.17644556
H       12.76900442      13.62957255      10.97587509       0.46380468       0.15385809      -0.17502451      -0.50302309      -0.12165034      -1.79742241
H       14.70112975      14.76012894      11.41355151      -0.46098649      -0.06281370      -0.01387035       0.21120644       0.89263833       0.41464484
H       15.30183446      17.21046664      12.93710957       0.27478150       0.17218755       0.11850087      -1.52417135      -1.27585924      -0.09543964
H       11.35967153      15.79404881      13.65975714       0.14686194       0.07047536      -0.11891895      -0.91098142       0.32875663       0.56734943
C       27.44748510       8.94338458      13.20975192       1.27059921       0.84751686       0.24617571       0.98696941       0.00861370      -0.26340085
N       28.25025673       8.51451529      12.03700019       0.97032345       0.28902902       0.56055501      -0.41539395       1.09259641       1.77804077
C       28.19890631       7.45216486      11.19088974      -0.47330907       1.43253153       0.75757569       0.62937140      -0.23521139      -0.25665632
C       29.35195053       7.62508353      10.40482736       0.16176796       0.45412147       0.38797532      -1.69586897      -0.17593572       0.81791043
N       30.02582191       8.77094784      10.76297084       0.18913446      -0.68002006      -0.98758870       1.71896219      -0.95533144      -2.18884349
C       29.35757201       9.28688787      11.73426490       0.89042490      -0.52080867      -0.26859503      -1.55453825      -0.34339559       1.08940816
H       27.01685795       9.87858729      12.88660636       0.23762852      -0.02010681      -0.04555118      -0.83909345       0.31918487       0.29493293
H       28.18404284       9.18336104      13.99239081       0.02587894      -0.10879327       0.06267760      -0.31773025      -0.14246032       0.03936983
H       26.74390423       8.21783677      13.62400479       0.15671881       0.16912486      -0.31528549      -0.07817745      -0.07246974      -0.50610811
H       27.41576778       6.66958909      11.24550894      -0.05338448       0.19143917      -0.03783823       0.56070870       0.67899328      -0.10067829
H       29.56085275       6.91660925       9.64838305       0.03569819       0.05963764      -0.03529056       0.97751862      -0.30202192      -0.81979537
H       29.57839963      10.18689689      12.27856529      -0.23796904       0.18989160      -0.14149403       0.00358264       0.36940604       0.09322345
C        0.57438795      22.29186604       9.40575855      -0.22331944       0.08902868      -0.59977852      -3.19984365       0.63878423      -0.15622208
N        1.81660607      21.66886624       9.59437494      -0.09638567      -0.77072184      -0.02131791       1.42107570       0.30554450       0.38840711
C        2.16634400      20.36141298       9.41893742      -0.55468092      -0.51907127       0.26342906      -0.60576534      -1.33062875      -0.12331560
C        3.52766379      20.29336081       9.57327775      -0.08838270       0.09591551      -0.66855204      -2.45023918       0.58832186      -0.22794606
N        3.97016804      21.51546207       9.87029721       1.27019608       0.21406830      -0.09347895       0.67699170       1.30904615       0.02715736
C        2.92692509      22.37318236       9.87347364       0.71580717       0.34469948      -0.22469947       1.46302962      -0.11715710      -0.01648407
H        0.60174059      22.92467776       8.51554855       0.12274351      -0.15480624      -0.28528073       0.14816894       0.42390192       0.05645566
H        0.24656610      22.89731545      10.30949931      -0.04449826       0.03405230       0.00485714       0.52687716      -0.61469513      -1.06870246
H       -0.24967372      21.57013542       9.13783046      -0.06046566       0.09706000       0.08302510       0.86974102       0.24877349       0.52039534
H        1.40825861      19.56567640       9.39326873      -0.16378890      -0.04823303       0.11189758       0.54618543       0.49404639      -0.27636114
H        4.10500357      19.47538711       9.67986202       0.12621600       0.11808096      -0.14736631       1.90202963      -2.71769238       0.10272532
H        3.10106556      23.43022256       9.97838900      -0.25662149       0.01449434       0.30447048      -0.59755486       0.37009472      -0.03839353
C       19.18380399       8.40630593      14.74595777       0.30731606       1.26456328      -0.40094527      -1.35637534       0.28385025      -3.15453744
N       19.21545215       9.73113089      13.95746901      -0.27270417      -0.28346970       0.51664092       1.85085464      -1.91642094      -1.00367630
C       20.06673619       9.93743776      12.81394175      -0.56165753       0.47075823      -0.36758638       1.23397875      -0.66896170       1.67064226
C       19.52381482      10.90996996      12.06752603       0.63724359      -0.72270761       0.95925373      -1.08858049       0.90079427      -0.52538872
N       18.38601367      11.40526825      12.73733552      -0.19817605       0.31576327      -0.11036031       0.85236531       0.06995855      -1.29679048
C       18.26690436      10.63962350      13.80866464       0.01545707      -0.03850719      -0.47126464      -1.54036915       1.02469957       0.09250170
H       19.71047784       8.49713406      15.63769940       0.10555039       0.19642178       0.03587244       1.11124408       0.10341700       1.65043855
H       19.54471171       7.59287843      14.06878004       0.17315910      -0.10219257       0.09109411       0.45779079       0.76651454       0.42022809
H       18.15363058       8.06876374      14.91395300       0.11761305      -0.16891157      -0.23152676      -0.16083527       0.57523489       0.26698536
H       21.13405379       9.73884163      12.87114592      -0.21803445      -0.10706092       0.50502310      -0.21280468      -0.63338244       0.02324502
H       19.81485830      11.23793267      11.05264973       0.05130773      -0.28355262       0.03351834      -0.21484619      -0.28199822       0.84594250
H       17.37757012      10.71967089      14.36762044       0.02234992       0.06658194      -0.11527783      -0.69502723      -0.14415669       1.08665812
C        7.82930350      13.53500777      14.52493801      -0.12791744       0.16986819       0.18803889      -0.03666624       1.20343673       0.14314143
N        7.55658667      13.18534338      13.12400238      -0.08423665       0.79703769       0.64963238       0.17736900       1.11120725      -0.79142368