640
Lattice="19.152215 0.0 0.0 0.0 19.152215 0.0 0.0 0.0 19.152215" Properties=species:S:1:pos:R:3:momenta:R:3:forces:R:3 energy=-80129.7109375 stress="-0.020395247265696526 0.002412875182926655 0.0005849567241966724 0.002412875182926655 -0.019884387031197548 0.0022350011859089136 0.0005849567241966724 0.0022350011859089136 -0.01995735615491867" pbc="T T T"
C       15.20954897      -4.64071737      15.39321642      -1.04458485       0.33892390       0.43741886       1.22631121      -1.72871768      -2.78949308
C       16.57375548      -5.39089899      15.52543815      -0.33721641      -0.33912937      -1.17950590       0.20408347      -1.16728640       0.64873731
O       17.29679609      -5.66074202      14.38795659      -0.44581457       1.12945078       0.20531334      -2.13561940       1.21231103      -1.50936174
O       17.09228579      -5.81982518      16.56667907      -0.00582731      -0.56016494       1.42632607      -1.14893961       0.56513667      -0.08298343
H       12.57759532     -10.53146903      28.46817974       0.05719651      -0.04771413       0.22141734      -0.75333023       0.05719265      -0.18335724
H       14.30029211      -5.14455332      15.76180436       0.08359145      -0.10348131       0.22392006       0.54219413      -0.17068653       0.09599772
H       15.09876226      -4.44233854      14.27152002      -0.00836133      -0.07422916      -0.01272855      -0.17873117      -0.12820521       1.54374290
H       15.33425553      -3.72402136      15.88095562       0.11829743       0.34405228      -0.22014942       0.02375910       1.73966622       0.96149397
C       -1.21915936      16.42225294      17.02121199       1.36894188      -0.08809062       1.15387330      -2.96486354      -1.08001411      -1.55849552
C       -0.02555620      16.76245979      17.78790410      -0.11774687       0.67854509       1.01253562      -0.52214789      -0.34847185      -0.16123122
O       -0.05084303      16.84711824      19.00500367       0.26429196      -0.28273257       1.06354448       0.01154208       0.31687212       1.96817136
O        1.03028215      16.87489969      17.04653170       1.11835628       0.95463018       0.32879886       1.93322492       1.03320646      -0.89803636
H       35.08703002      21.94324620       7.67253795      -0.05061241       0.00331576       0.29297852       0.14509213       0.90605295      -0.87155807
H       -1.53103341      15.35477740      17.18686610       0.15646400      -0.25489169       0.23258532       0.35675207       0.83191359       0.46741754
H       -1.10885068      16.42118984      15.92607841      -0.26260011       0.16081463      -0.21732059       0.49489963       0.46393019       0.10419522
H       -2.14520368      17.04780069      17.20756319       0.18997696      -0.03474287       0.16552954       1.04679918      -0.39741760       0.15366864
C        9.42033100     -10.80536044       8.37827580       1.16798343      -0.36359464      -1.22768842      -0.19264644       0.21585056      -0.49232498
C       10.88742392     -10.93373986       8.34607772      -1.33220385      -1.03143502       0.82185502       2.19969606      -0.35278153      -0.23125944
O       11.50570245     -11.53843080       7.47009840       0.72133335      -0.73792618       1.42544094       0.08054793       0.10185137      -0.15825492
O       11.55872298     -10.36947284       9.39560193       0.46583926      -0.93405508      -0.04004145       0.24487737       0.02958560      -0.02110130
H        9.44903024     -12.21782566       4.69449385      -0.06030150      -0.12624940      -0.07071045      -0.07844257       0.14195871       0.16333596
H        9.17832059     -11.25116543       9.39548656       0.32362526       0.42295697       0.22774668      -0.81264180       0.81521457      -1.23859227
H        9.07839327     -11.38301207       7.45203038      -0.06583673      -0.37604188       0.01639339      -0.10021567       0.69306719       1.49564278
H        9.21111792      -9.68796900       8.21982976      -0.23218320      -0.03321494       0.07019494      -0.26843059      -1.47546268       0.65282798
C       20.03024197      -3.89883731     -15.92137008       0.33058358      -0.03229929       0.24749967       0.20017889       0.31510270       0.75232899
C       20.65263631      -2.53222419     -15.83568276       0.99669038      -2.66777778       0.57517211       0.29685411       1.24601078      -0.58657146
O       21.29910566      -2.03918111     -14.93418942       0.87332401      -0.31311982      -1.01502775       0.48245651      -0.91344017       1.36490440
O       20.43756103      -1.64262281     -16.86439121       0.86113576      -0.57046845       0.88974065       0.59866691       0.35600090       1.67004168
H       13.07914554      -2.72808200     -10.79023914      -0.12346306      -0.13392002      -0.15944526      -0.38022405       0.19451815       0.02660012
H       18.99576972      -3.71284052     -16.10741510      -0.32383483      -0.17175888       0.14147402      -1.34505939       0.02329850       0.19062197
H       20.13932554     -23.61075480     -14.96568718      -0.15475110      -0.34498305      -0.22502161       0.09814328       0.34384361      -0.62873608
H       20.30599396     -23.61054522     -16.80280681       0.13531654      -0.36592574      -0.03574939       0.80323100      -0.32081941      -0.35075146
C       22.29873409      43.97820034       1.52611743      -0.19103595       1.77463356       0.46264143       2.23170900       0.80800915       3.78605890
C       21.44287459      42.74409352       1.53264119       0.44477788       0.29691489       0.21320470      -0.57109064       1.65364671      -1.54541075
O       21.87781972      41.61118574       1.67378858      -0.25279072      -0.23446551       0.14538480      -0.31692666      -0.32016271       0.15318276
O       20.18054300      43.15950046       1.23043922       0.82622712       0.71218712      -0.20089325       0.51364881      -1.27307987       0.33690646
H        1.80877773      17.43754196      17.53852510      -0.32209405       0.05195589       0.39783229       0.16370074      -0.51047403       0.22847867
H       23.36292399      43.70257501       1.89436470       0.11136171       0.06909533       0.37639896      -1.42258871       0.29081243      -0.83628118
H       21.92417810      44.64819995       2.39671392       0.14334832       0.08636176       0.00894349       0.47562656      -0.91468304      -1.08298349
H       22.37180841      44.69382957       0.71303934       0.28714724      -0.09939586      -0.22472356      -0.40561414      -0.49147919      -0.81001145
C       18.66654272       5.73995533      12.52772569       0.66332610      -0.84575720      -0.21267064      -1.39269912      -1.32318926       0.31236798
C       18.31557115       5.74873993      11.06378416      -0.30774311       0.66599597      -0.89097432       2.07399082       1.15955567       0.32637513
O       17.47734030       5.09585476      10.49377479       0.48055953      -0.36821293      -1.30645659      -1.39475071      -0.72609246      -0.50119805
O       19.17569348       6.58464041      10.39735556       1.30704058       1.29395816      -1.02296066       0.07104039       0.17501497       0.66316944
H       21.18398152       5.06582905       7.41888243      -0.06281935       0.26858823      -0.31355943       0.27921912      -0.62924242       0.72259718
H       18.69045838       6.77863363      12.90629168      -0.01574674       0.00224436       0.13904445      -0.37274465      -0.40285164       0.15511376
H       19.70713187       5.37012352      12.66687089       0.03040874       0.11311559      -0.17120688      -0.70514846      -0.06073304       0.03542922
H       17.83762192       5.05962080      12.99985694      -0.04884876      -0.08794401      -0.18614690       1.69845653       1.48215461      -0.28539330
C       25.61675164     -11.71220383      -5.94587135      -0.31723939      -0.35720413      -0.68445307      -2.14359522       1.35022259      -0.43365890
C       25.00423749     -11.65480249      -7.37259788      -1.41840767      -0.67347999       0.83552997      -0.31573910       0.47329146       0.64086056
O       23.93495420     -12.21620567      -7.64636857       0.30896245       0.73681715      -1.11722177       1.09888673       0.48599026      -0.23385209
O       25.70149714     -10.82337883      -8.20867675       0.79664264      -0.29866274       0.36933984      -0.55124974      -0.92030901      -0.79291111
H        0.48872281      -9.97791257      -4.71279659       0.08632847      -0.06101623       0.00859901      -0.31045961      -0.04505455      -0.57158971
H       25.35833511     -10.68900695      -5.44910706      -0.00197611       0.14759433       0.19442779       0.79316890      -1.65179849      -0.63086700
H       26.66198873     -11.93407215      -5.96266602       0.07083809       0.18236949      -0.09613638       0.77056283       0.19990733      -0.05911478
H       25.08144259     -12.49602193      -5.39799227       0.13002915       0.05537291       0.30536013       0.01656740       0.31590781       0.04270959
C       15.62986691       8.81104535      11.33579135       0.46695762      -0.27972884       0.15940188      -2.80472493       0.15473086       0.06527805
C       15.06076197       9.34337783      10.01358560      -0.55127794       0.54249488       0.48582872      -0.91840655      -1.97717452      -0.46585572
O       14.29520019       8.56058451       9.34609329       1.04983606      -0.71580362      -0.80557424       0.50604123       1.13356316       0.59082359
O       34.58813404      10.53183944       9.58855621       0.23377727      -0.22132466       0.13637743      -0.10317701      -0.62648547      -0.48967028
H        5.06446262      16.92616591      10.07749598      -0.04147058       0.18935703      -0.21377644      -0.34206456       0.15164497       0.55553097
H       14.80217597       8.90805478      12.14761607      -0.23050673       0.30861718      -0.19198246       1.12562144      -0.25202531      -1.40189052
H       16.40337870       9.46547580      11.62004394       0.15831643      -0.39723381       0.02241922       1.48655689       0.40297660       0.60703868
H       15.82679682       7.73173493      11.24208886       0.19635807      -0.16755227       0.12963102       0.31695092       0.40971124       0.07009925
C       15.47549523      -2.44374754     -12.98809845       0.31340666       0.27614233      -1.07455986       1.80988085      -0.62689495       1.12225747
C       14.12786042      -2.77573732     -12.47226885      -1.29254384       0.73177248       0.42782946      -1.28396213      -0.18188126      -2.72318935
O       14.01650218      -2.89755861     -11.19001369      -0.85478317      -1.05648055      -0.73689218       0.10479999       0.02574628       1.80311191
O       13.20817424      16.24520124     -13.31562217       0.26905825      -0.85259279      -1.36979344       0.00131363       0.00534414       0.96263772
H       15.18715172      29.73163763       8.45629917      -0.28004254       0.05836089      -0.19816355       0.13257584       0.87403297       0.35560173
H       15.86188253      -3.30118535     -13.58606481       0.03391779       0.00537410      -0.27740282      -0.09741163       0.43919131       0.45397156
H       16.20713800      -2.22711713     -12.15067232       0.15789210      -0.11075009       0.15184322      -0.65505052      -0.18211623      -0.98052901
H       15.34883884      -1.62260781     -13.66322588       0.02276006       0.18271326      -0.12073535       0.21982762       0.79442930      -0.45590889
C      -13.71818687      21.86268546      23.34529262       0.07730007       0.12862449       1.25799454      -0.68026948       0.23884395      -1.34800363
C        5.27853063      21.47993222      24.74856243      -0.28555056       0.45170865       1.28144269      -0.95267296       2.78356647       0.99206293
O        4.82091315      22.44051342      25.62044258      -0.15464814      -0.20548001      -0.87787846       0.00793958       0.06836152      -1.60611081
O      -13.52608851      20.42244000      25.16908606       1.03756385       0.25974421      -0.11654482       0.96310878      -3.68265438       0.97510988
H       16.45601088       6.97894901      17.16647070      -0.30454491       0.16341318       0.03281363      -0.18138438       0.09689272      -0.44414845
H      -13.24134050      21.12179616      22.71365474       0.01702018      -0.23139301       0.07559352      -0.13062608      -0.75540030       0.22649071
H      -13.04851652      22.67786199      23.23953044      -0.26044612      -0.38845368       0.00007933       0.72458643       1.39625454       0.10666849
H      -14.62966308      22.18609501      22.84449827       0.03928598       0.24693805       0.28686651      -0.42580780       0.02036476       0.05750845
C       30.18692367      31.10212683      10.08034661       0.43705134      -0.49742898      -0.38978531      -0.35318732       1.17053342       0.54517555
C       29.20879125      32.00437923      10.83956190       1.31498014       0.42794507       0.10039177       1.21522415      -1.65480995       1.54999924
O       28.24383613      32.45452985      10.26735016      -0.48873712      -0.50911912       0.82672142      -0.83807373       0.97523999       0.02848079
O       29.42596623      32.15199495      12.22410568       0.23450134       0.40887515      -0.53893338       0.35246921      -0.19592142      -1.71615767
H       30.31978141      12.50925996      12.51231242       0.22720143       0.35566747       0.03039460      -0.51859802       0.23847990      -0.13973598
H       31.12239638      31.02339969      10.60722636      -0.13126886       0.05987225      -0.01116950       0.56617415      -0.51240289       0.30732444
H       30.38214488      31.64453193       9.17749898      -0.46995744       0.40026175       0.24295703       0.30181661       0.46220884      -0.92367005
H       29.74917176      30.15460049       9.77678084      -0.13445637       0.54005481      -0.12080142      -0.02379643      -0.34900230       0.32154095
C        2.71313260       7.71902003      16.40825059       0.78788690       0.56034859      -0.06998289      -1.48609912       0.79539376      -0.67340106
C        1.83749094       7.85919311      15.18604104       0.28248807       0.16173475       0.31087726      -1.46238494       0.16152935      -0.58789492
O        0.82893458       8.86422680      -3.80522192       0.97955600       0.49156826       0.64006392       2.23460126      -1.80931127       0.55725980
O        1.98565889       7.15884490      -4.97723591       0.29311744      -0.96457831       0.71013600      -0.47864991       0.96034455       0.57675231
H        4.72054382      11.93880270      23.27829600      -0.04272641       0.33007489       0.09071556       0.21274334      -0.60164434       0.00820979
H        3.24857755       6.78287008      16.39223149       0.18807979      -0.12334438      -0.02287175      -0.31048089      -0.41133556       0.13593423
H        2.03038293       7.90816491      17.25515504       0.22339380       0.20284369      -0.15079308       0.90150142       0.16803265       0.18646848
H        3.45361274       8.48039900      16.15261484       0.16424990      -0.07632031       0.41218907       0.40738258       0.48236057       0.92500114
C       14.17830333      20.52081169       3.02162378       0.00043746       0.36161387      -0.72874553      -1.20078909       0.67126584      -1.94356096
C       13.98867855      20.41784093       4.47867670      -0.16786272      -0.22477359       0.76011707      -1.92562389       0.09443514      -0.01597190
O       15.08683183      20.26546978       5.21929104       0.19088009       0.06294360       0.03790767      -0.11730323      -0.19783194       0.07264745
O       12.79064803      20.51484062       4.87045108       0.42349346       0.01881735      -0.81836146       2.07867789      -0.35872751       0.69667894
H        5.29848968      22.28954313      26.52459596       0.05886291      -0.06432949      -0.11168572      -0.11654586      -0.04895276       0.24459805
H       13.15281080      20.87439542       2.66402635      -0.29521357      -0.20836416       0.26362451       1.38883996      -0.40751922       0.04767537
H       14.36767034      19.57734028       2.47942640      -0.12698449       0.00418348      -0.07198112       0.13172257       0.02513239       0.40003473
H       14.94601166      21.25732171       2.72707975       0.28290275      -0.10173561       0.02606676      -0.17402002      -0.16653848       0.05203916
C       22.31343286      -7.20897552      12.32999971       0.53667853      -0.10549154       0.48982092       2.68551421      -0.37971598       1.37806451
C       22.52593393      -5.75486351      12.60813607      -0.55694291       0.69557650      -0.34718991      -1.01120496      -0.59602153       0.40957278
O       23.08460417      13.61744356      13.73660860       0.54250018      -0.59978609       0.30824763       0.98456883      -0.23982972       1.41641736
O       22.00679712      -4.90125489      11.88176889      -0.39903370      -0.33723825       0.17556662       0.36505771       0.52570629      -1.43176365
H       42.23876945      -4.38569910      14.14216973       0.00882449       0.08044973       0.16115129       0.11232460       0.07277644      -0.78515238
H       21.40167082      11.67636503      12.78498143       0.05518457       0.20696528      -0.26426306      -1.22047222      -0.79933029       0.60776770
H       23.17988279      -7.86073773      12.66712049      -0.13709439       0.33623580      -0.05655099      -1.09369826       0.70153427       0.12099913
H       22.26786519      -7.32530000      11.31183399      -0.12397411      -0.11404211       0.16739371      -0.54181898      -0.48000231      -2.78049660
C        0.77454347      16.01987302      -6.60695601      -0.83526153       0.10698975      -0.26637983       1.31970787       0.40123764       0.47085184
C        0.36374636      16.91812693      -7.66308751      -1.09239433      -0.18070317      -0.91717263      -1.34366560       0.29714507      -0.47463986
O        0.97704399      17.94358771      11.19671574      -0.06419924      -0.13129353      -0.45457272      -0.07348593      -0.09446216      -0.17623901
O       -0.75484158      16.51591323      -8.34469638       0.39221551      -0.27211199       0.28352767       0.13511339      -0.11695206       0.20564258
H       -1.09345705      15.53920675      -8.02334594       0.29010576      -0.08622941       0.29534773       0.18957552       1.32591033      -0.46748251
H        1.49098033      15.41018818      -7.14986536       0.17924189      -0.11298306       0.27880926       0.51967567      -0.77139151       0.14830410
H        0.04942759      15.38136990      12.93345758      -0.05934715      -0.06690789       0.11512906      -1.68857121      -1.08658457       0.65574932
H        1.30501781      16.47511176      -5.76842684       0.20876679       0.50310545       0.01672673      -0.22442749       0.39686012      -0.04005872
C       15.30817512      14.03999184       9.77810276      -1.04017468      -0.79989584      -0.78133456      -0.49301946      -0.02333617       1.28567362
C       16.00249917      14.26877959      11.14778672      -0.63247926      -0.92119842      -0.02656270       0.03750455      -1.23202872       0.22052720
O       15.33821332      14.25023636      12.23144546      -0.21710880      -0.93850730       0.42883492       0.48379356       0.25069183      -0.72839952
O       17.31562599      14.27703769      11.20255203       1.19767852      -0.40148450      -0.38759546      -0.15692133       0.35351798      -0.41689444
H       -2.41162223      13.81594889      -5.58238313       0.13114637       0.48473627       0.12273414       0.74426425      -0.44292188       0.83793366
H       15.48088612      13.02997781       9.34913312      -0.09124989      -0.13110867      -0.16086036      -0.12922597       0.56902587       0.36429918
H       15.49635223      14.81888921       9.07024143       0.09270856      -0.39450640      -0.55082042       1.09270787       0.46430129      -0.62856752
H       14.24468418      14.24859028       9.93005545       0.03150197       0.28384933       0.03216342      -0.39386418      -0.66976023       0.26645613
C        0.58652174      -1.72894216       7.49542585      -0.33295350      -0.64945071       0.42287916      -0.76973301      -1.01167631      -1.39096665
N        1.99017888      -1.85106844       7.72509747      -0.74406403      -0.36663225      -0.09510231       0.99388075      -0.98062515       0.44663420
C        2.75277626      -0.77317824       7.51468066      -0.40594917       0.62027543       0.48582344       1.62687194       3.19324160       0.25617912
C        3.88551552      -0.93621219       8.29647167       1.01590926      -1.04509282       0.32940188       0.01687864       0.98840725      -1.63558280
N        3.86946584      -2.13967148       8.94356426      -0.61138529       0.56468910       0.40003627       0.77121276       0.52114594      -0.14840046
C        2.73471005      -2.66554734       8.58274594      -0.37373061       0.51007404       0.37980405      -2.30379629      -1.06394660      -0.28943956
H        0.07073294      -2.14479463       8.35399619      -0.25926821       0.09047489      -0.12642950      -0.58049715       0.11021767       0.02845955
H        0.27909284      -2.19171106       6.52319849      -0.06286379      -0.16667813       0.07878549       0.15018705      -0.24700962       0.79707104
H        0.43682794      -0.67733901       7.29222810       0.11620645      -0.21115558      -0.03676255      -0.56646287       0.46394560       0.55998552
H        2.43832325       0.22731178       7.06799341       0.09757237       0.04031654      -0.22196164       0.13962227      -1.80467784       0.36353943
H        4.72781133      -0.28502355       8.16217094      -0.23130861      -0.26409673       0.08314817       0.55461192       0.04999506       0.47829720
H        2.29980273      -3.56479889       8.98281891      -0.06823377       0.14854760      -0.32608326      -0.02995309      -0.32871771       0.08436353
C       15.31039918      18.43397639      11.86602716       0.17088756       0.41983772       0.64138967      -0.18460743      -0.66859490       0.33692515
N       15.70920676      19.10149226      13.09832856       0.72136878      -0.08125974      -0.38701803      -0.09815353       0.34377986      -2.09160733
C       15.80333636      20.46104987      13.10227493      -0.88605425       0.10778370       0.16379869      -0.62196922       1.72824812       1.05134082
C       16.01256110      20.81552961      14.46481717      -0.39912479       0.46646086      -0.47277611       0.23180741      -3.22573423      -0.73685139
N       16.12001547      19.54261209      15.21914238       0.57949781      -0.65687446       0.79108496      -0.02627175       2.48410273      -0.49568346
C       15.93319329      18.59079392      14.32253924      -0.45467657      -0.35341852       0.43467897       0.41418260       0.78720093      -0.05841771
H       14.94889810      -1.68669525      12.17397549      -0.29928319       0.07330731       0.23364759      -0.69128013      -0.38263077       0.02103332
H       16.16843158      -0.99256879      11.24938709       0.00720600      -0.10518435      -0.03332942       0.13506363       0.55160385      -0.38528368
H       14.50703896      19.01932914      11.36252409      -0.19714873       0.14370048       0.48370586       0.61037076      -0.41559455       0.09832580
H       15.50474437      20.99330229      12.13886403      -0.20112127       0.15278101       0.10758647       0.67620844      -0.46636173       1.65959358
H       16.02034182      21.75542025      14.98337766      -0.01276997       0.19783316      -0.25732554       0.00564806       0.13893926      -0.03051209
H       16.24482806      17.57858209      14.38112417       0.02379201       0.48209242       0.20695274      -0.06707686      -1.07964981       0.50898188
C        7.85721019      13.24616725      14.33361907       0.11733945       0.44890883       1.55118417      -3.24429226       0.91371870       2.51503611
N        7.21206481      12.11710448      15.01858421       0.11583612       0.08047131       0.45423043      -0.79596668      -1.18800879      -0.79279107
C        5.90302625      11.58973406      14.89807090      -0.16695809      -0.84762203       0.16336991       0.08128259       3.85569501      -2.86453342
C        5.84762133      10.49630569      15.62069679       0.16237619       0.26479186      -0.39970954      -0.22113883      -2.88797045       2.55094314
N        6.99040031      10.33489057      16.38797366       0.46531541       0.58285070       0.12466022       1.57791352       0.57228410      -1.12090278
C        7.82166256      11.29982723      15.89241015       0.31202220      -0.62200156      -0.56346723       0.52534473      -0.51978946       2.60240984
H        8.23267952      13.07458924      13.37268463       0.09267037       0.36949159      -0.01055541       0.21793468      -0.29077727      -1.65861928
H        8.60934212      13.54267022      15.00258977       0.03774108       0.31839565       0.17812193       1.74716854       0.37386483       0.75213623
H        7.10145262      14.07455367      14.50214902      -0.10991365       0.11842636       0.09916537       0.64318860      -0.44587311      -1.24701095
H        5.15652915      12.24163973      14.41764318      -0.29298799      -0.28174334      -0.03393477       0.21373725      -0.57575327       0.20949642
H        5.12758517       9.67695742      15.68727878       0.15165596       0.08919095      -0.02583230      -0.12428856       0.55383790      -0.26225701
H        8.76858220      11.62459682      16.38302062      -0.00999394       0.37457947      -0.03231840      -0.64172810      -0.61152852      -0.47897458
C       19.62589711       7.95785114      20.58866012       0.84971793      -0.04699356      -0.36458587       0.51473475      -0.67657322       1.56323552
N       18.99508629       8.18901855      19.35002729       0.10240901       0.11614181       0.10088670      -1.10169291       3.09480238      -1.32434452
C       18.36808714       9.45354191      19.00205094       1.11330289      -0.95141587      -0.06065006       1.00278807      -1.49946094       0.68803424
C       17.54148653       9.11816878      17.99053633       0.26999085      -0.33218909       0.34315341      -0.95167732       1.77621269      -1.15050888
N       17.53201672       7.78978138      17.70487006      -0.69273200      -1.23720989       1.29614346       1.25726259      -1.04744148       0.72912270
C       18.44051385       7.25356233      18.57192742       0.10781530       0.80596306      -0.14157007      -1.21192884      -1.12624860      -0.34343916
H       20.19966601       8.85093540      20.92141607      -0.13834974      -0.17732436       0.09165183      -0.13047335      -0.68729091      -0.07675910
H       20.21796623       7.02516758      20.49785504      -0.08365315       0.07978772       0.01942184      -0.14975345       0.82840073       0.24297073
H       18.79777313       7.75063903      21.28410163      -0.05822614      -0.21462837      -0.12284078       0.40391433       0.07099447       0.47010225
H       18.42817024      10.41513166      19.51712820      -0.24762475       0.17719232      -0.09318090       0.43367660      -0.56040412       0.13126540
H       17.01851733       9.90281199      17.42027998      -0.16592101       0.08740927      -0.05509709       0.00665665      -0.81490731      -0.04215539
H       18.47080239       6.17955576      18.88408052      -0.13107458      -0.19847921       0.23194759       0.12510529       0.94004536      -0.65399903
C        5.01971287       6.54314506       5.25401266      -0.86396018       0.66995487      -0.77436075       3.25035667       1.15913916       1.84813023
N        5.01048000       7.60052184       6.36917455      -1.41278506       0.83574994       0.46349793      -0.25322771      -0.71207297      -0.17075086
C        4.04104871       8.53502794       6.62151599       0.06550954      -1.05257512      -1.37227311      -0.63464642       0.50217009      -0.20488405
C        4.25332659       9.01189231       7.91562910       0.05659038       0.70145655       0.59526162      -0.74839103      -0.17377567      -1.07263923
N        5.39464965       8.40750619       8.45889152       0.87207708       0.49819730       0.24008145      -0.92277598       0.51561272       0.09558994
C        5.78205768       7.59308952       7.51044154       0.68934479      -0.55736997      -0.76481010       0.83986276      -1.92799926      -1.55525196
H        4.09300008       6.32979858       4.80874151       0.20799494      -0.18094140       0.10729308      -1.60972273      -0.30922130       0.01896308
H        5.59694420       5.67731978       5.65162165       0.02334947       0.15023461       0.45460912      -1.00824833       0.11272734       0.02131644
H        5.69959289       6.90114579       4.48742305       0.13052965      -0.17130881      -0.10583335       0.06115685       0.43499756      -0.46945968
H        3.35450225       8.79660230       5.79989348      -0.01766480      -0.17491025       0.27762411       0.30361524       0.05700890       0.74633086
H        3.50570439       9.65937038       8.37938862       0.17051438      -0.09833485      -0.13008538       0.72203600      -0.06979001       0.40399331
H        6.50182277       6.79356911       7.54799284      -0.01727694       0.13892026      -0.52903784       0.44801876       0.10746455       0.46543610
C       10.96348679       4.30111387      17.08569120      -0.45459964      -0.45441677       0.89987099      -0.14541924      -0.85196447       1.54948747
N       11.64861262       4.51611614      18.39523800      -0.18616728       0.10684107      -0.58850566       0.20381325       0.12018193      -0.19553185