640
Lattice="19.152215 0.0 0.0 0.0 19.152215 0.0 0.0 0.0 19.152215" Properties=species:S:1:pos:R:3:momenta:R:3:forces:R:3 energy=-80129.2578125 stress="-0.015290552750229836 -0.0017627434572204947 -0.0007263647275976837 -0.0017627434572204947 -0.022313596680760384 -0.00159830239135772 -0.0007263647275976837 -0.00159830239135772 -0.017503274604678154" pbc="T T T"
C       14.91636382      -5.52571079      14.99808796       0.26098548      -0.72675324       0.52598230      -2.74280286       1.54960322      -0.94875771
C       16.05032827      -6.21546266      15.53671627       0.31138365      -0.27196760      -0.78568744       3.36805630       0.42281106      -1.04762399
O       17.08888054      -6.44368777      14.59048999       0.08646305      -1.21437280       0.22121185      -1.04074430      -0.72936118       0.56409693
O       16.33995117      -6.30152123      16.71459224      -0.21520552       0.28714932      -0.11097662      -0.21145585      -0.78168178       0.99865764
H       14.25703215     -12.96193712      26.87852452      -0.33687914       0.13497143       0.08421612       0.43920428       0.32223886       0.84569043
H       14.45806761      -6.13088874      14.16903100       0.04219931       0.04507167      -0.11636752       0.26389688       0.67432463       0.53558946
H       15.39584880      -4.56808102      14.53894025       0.22648505      -0.03931290      -0.08850548      -1.29681754      -1.31782603       0.59680843
H       14.09147139      -5.29434849      15.78687994      -0.12579758      -0.16761618       0.23889890       1.74600124      -0.36496955      -1.30072856
C        2.11154403      16.66193582      20.21571544      -0.23197167       0.31650673       0.74823841      -1.63560414      -0.90124691       0.54076594
C        1.34305062      17.57635337      19.27873571      -0.48384468       0.69223177       0.14706869       1.08759892       0.59911466       2.43129492
O        0.49034802      17.16526766      18.51719618      -0.42628423      -0.23564528       0.43907329      -0.95482528      -0.50360841      -1.49792421
O        1.58688079      18.86477070      19.48104973       0.95219939       0.40593162       1.31246739       0.01116633       1.01070786      -0.38127446
H       32.54038305      20.88659313       8.97677633       0.23914769       0.11533387       0.12350427       0.02741522       0.01011503      -0.65409571
H        3.13925094      16.59386423      19.97270528      -0.31749524       0.15125400      -0.19313850       1.36372805      -0.19077599      -0.47916356
H        1.61782755      15.69029301      20.09013422      -0.15716057       0.19839695       0.01374841       0.34700677      -0.24592122      -0.03441133
H        2.04152635      16.87628448      21.29919114       0.03313349       0.09872344       0.06288318      -0.11735779       0.39073491      -0.45969734
C       11.29304682     -14.03110713       6.94641541       0.12334677       0.27187391      -0.08300821      -1.05772460       0.79353273       0.07994512
C       12.48535241     -13.76120481       7.79616860      -0.91672675       0.06876618       0.62336938      -0.32301235       0.96587074      -0.66597307
O       12.46358478     -13.94463618       8.99682024      -1.03036423      -0.45248260      -0.74480509       0.61378431      -0.37493864       0.78555274
O       13.48099039     -13.14145082       7.11327546       0.03645213       0.25719340      -0.19463789      -0.46820062      -0.32827708      -0.13184524
H        8.93266058     -10.40532642       4.47395460       0.01509902      -0.11347517      -0.10544362       0.85571086      -0.19467682       0.18279821
H       10.43797132     -14.19290540       7.63559176      -0.04299546      -0.26923918       0.03525992       0.27350318       0.05049153      -0.42530039
H       11.43577887     -14.95673473       6.39447639       0.39710911       0.11189512       0.03303240       0.01172213      -0.09084003      -0.49513787
H       11.07117042     -13.13391015       6.29077700       0.01956056       0.27336057      -0.23368292       0.27041656      -1.27332306       0.45096406
C       19.06396372      -4.01291606     -13.42460364      -0.04269977       0.64155442       0.01160197       3.48765182       1.34597027       0.06455809
C       19.53157962      -2.70440098     -14.14489219      -0.21765616      -0.41493716      -0.04015030      -0.33486909       0.65590864      -0.74271345
O       20.35662602      -1.92642221     -13.63837027       0.28659828      -0.31375875       1.66979425      -0.31601197      -1.01019526      -0.00167754
O       19.03912958      -2.36126779     -15.39028850       0.12810149      -1.15735781      -0.57199368       0.14457786      -0.85548687       1.01762557
H       15.23447373      -2.43764200     -12.99230280       0.22281974       0.10084118       0.15337408      -0.42378086      -0.47506601      -0.48398113
H       20.08795427      -4.42804724     -13.05200704       0.12247689       0.23497891      -0.21760393      -1.79265141      -0.01205546      -0.90632695
H       18.47249646     -23.81659242     -14.02172731       0.37816346      -0.07000669       0.18142637      -0.20511648      -0.71250826      -0.62316006
H       18.58085314     -22.91081637     -12.50830669       0.09597435      -0.24103644      -0.16561098      -0.87241572       0.41394678       0.72889817
C       20.09772440      45.30621815       1.99824166       0.62246858       1.21290311      -0.00969179       2.75955439      -0.69702727      -2.59908319
C       19.22306777      44.19874783       1.54122272       0.14906332       0.42144700      -0.86661452      -0.93313628      -0.56113553      -1.60892630
O       18.40452135      44.30773797       0.58668634      -0.83136224      -1.03564254      -0.85646862       0.97701120      -0.17044824       1.38808894
O       19.43127627      43.04492306       2.21471508      -0.08010822      -0.29597914       0.85446659      -1.30903089      -0.25981778      -0.22893929
H        1.91352111      19.14135464      20.49905595      -0.24194688      -0.13036456       0.20768289      -0.23652540      -0.67317992      -0.36963329
H       21.02784462      44.86352091       2.41387244       0.21094651       0.17403953       0.16538064      -0.63558900       0.26910627       0.23152302
H       19.56675399      45.85886433       2.71334179       0.08418275       0.05742952       0.02021085      -0.55103195       1.49767959       1.10135710
H       20.52699269      45.87625316       1.07028090      -0.20130100       0.32368604       0.02636096      -1.28021133      -0.49328771       1.65969467
C       20.91597380       5.34865971      13.55022931       0.67126527      -0.65077289       0.67358875      -1.42308140      -0.66521740       0.62592757
C       20.10381752       4.86628868      12.38391841       0.56362352      -0.29236740      -0.29339212       1.98948371       3.17586064       1.10767126
O       19.49241609       3.85838996      12.44814610      -0.15575150       0.46072802       0.13877951      -2.58790445      -3.47818899      -0.80522621
O       20.23754480       5.67676663      11.34095380      -0.03631714       0.31833347       1.95369639      -0.02905303       0.72425699      -1.46400785
H       21.28696854       3.48177689       8.54679909      -0.16747884       0.15736940      -0.15275693      -0.77948642       0.37568665      -0.96794730
H       20.80823288       4.45438704      14.16671852      -0.10560635      -0.18240902      -0.29630162       1.16790402      -0.00592723       0.63516361
H       20.43787894       6.12063866      14.17681930      -0.10749467       0.03128782      -0.10562542       0.04710517       0.33885092      -0.59334189
H       21.89001207       5.62052392      13.19993846      -0.07170445       0.23274981       0.06543035       0.87708855       0.21950957       0.26383069
C       25.00938709     -11.00577326      -7.11355147       0.44826482      -0.30452949       0.56126501      -0.20185508      -0.24802846      -0.19000465
C       24.41766836     -11.24972803      -8.52254499      -0.00955414      -0.05685469      -0.55270601       0.73818392       0.20042136       1.08248878
O       23.66869556     -12.21061823      -8.73252719      -0.62772160       0.05045456      -0.16061306       0.12209639       0.40369377      -0.59037411
O       24.85847152     -10.32298565      -9.40201694      -0.95145155       0.13726320      -1.47208545      -0.94966614      -0.63677466      -0.26930147
H        2.07279374      -9.15695022      -4.33058853      -0.03032542       0.11085616      -0.15143612      -0.52368116       0.14690822      -1.40770686
H       26.05509544     -11.34635000      -7.05003165       0.11179399      -0.16953631      -0.22183717      -0.15282983      -0.01854596      -0.19268635
H       24.45487389     -11.47079965      -6.28518104      -0.18295177      -0.52382488      -0.28343897      -0.19747728      -0.28579786      -0.50834972
H       25.00033244      -9.95475453      -6.84496886      -0.25124455      -0.02114692       0.13429096       0.10348117       0.52678776      -0.28333026
C       16.40715571       6.77505544      10.89583497      -0.00836805       1.33023753       0.40114948       0.32736200       0.11767870       0.15216604
C       15.37542828       7.09689032       9.86519215      -0.51237496       0.12947969       0.65578552       0.12390471      -0.67963398      -1.14221907
O       15.46138718       6.47582443       8.75657214      -0.36984538      -0.24309070      -0.23049403      -0.01169150       0.17518699      -0.15682226
O       33.64567870       8.00017832      10.12591539      -1.25149284      -0.97441428      -0.85367984       0.06523108      -0.12866828       0.95519936
H        6.37642897      18.58881515      10.49837338       0.14860765      -0.09252821       0.18285237      -0.79413837      -1.00238442      -0.56673992
H       17.30742324       7.38190744      10.69052470      -0.05785241       0.05899912       0.02969131      -0.30539063       0.49119309       0.34071100
H       16.84493057       5.78027529      10.70165299       0.16640301       0.06872316      -0.06685070      -0.70156503      -0.00343144       0.55752659
H       15.94487680       6.99553954      11.87624061       0.22785032       0.15367319      -0.21901446       0.80359536      -0.43491164      -0.06950381
C       14.05538180      -4.17220534     -10.62778199      -0.16546181      -0.02217585      -1.62471009       1.78941488       1.18659532      -1.57967162
C       15.08722717      -3.79598027     -11.70581654      -0.18530390      -0.08013855      -1.83934562       3.05970526       0.13507745       1.54360700
O       14.62511592      -3.34827772     -12.87657911      -0.20250606       1.03472659      -0.22057417       0.01079357       1.30563343      -0.07795787
O       16.33930575      15.38555600     -11.49315108      -0.27813250       0.73407271       0.22485275      -2.36937642      -0.47135791       0.10339302
H       14.35972597      27.97160374       9.16020181       0.28571895      -0.15473866       0.03686265      -0.10896397      -0.27147186       0.47404349
H       13.25230506      -3.47884360     -10.71917091       0.29285372      -0.31477555       0.24816767      -0.71530396       0.55545950       0.44125208
H       14.45526320      -4.35359948      -9.65957378      -0.12812529       0.33225174      -0.13448896       0.64207363       0.70867693       0.94035506
H       13.73653233      -5.12282995     -10.86226445      -0.10895826      -0.16623585       0.11778005      -1.40163541      -2.51197672      -0.95146704
C      -15.40136385      24.73666485      23.06763485       0.19747373      -0.09311630       1.14343938       2.17053437       1.19720292      -2.16123056
C        4.98485721      24.35669414      23.80136105      -0.09017752      -0.02739131       0.37873789       0.51126242      -2.64456177       1.32102323
O        4.84304249      24.36807372      25.13955638       1.90883176       1.42391240       0.27867937       0.60041547       0.60131550      -0.72258085
O      -13.16375009      23.88348192      23.21553274       0.08591965       0.23675078       0.44496312      -0.26160103       0.74292493       0.24435520
H       15.65534281       5.31830312      14.94555005       0.30630521      -0.18225922       0.18961956      -0.15324061       0.14450240      -0.87600547
H      -16.33024490      24.40345910      23.38362113      -0.30143406       0.01124435       0.23291696      -1.71106648      -0.82088107       1.18029618
H      -15.27522119      24.54456071      21.97431540      -0.35631867      -0.43053742       0.06283665       0.00952879       0.00850322       0.77148247
H      -15.35441321      25.80938292      23.18604294       0.07467191       0.21133441      -0.12686488      -0.64198363       0.87159729      -0.12020016
C       31.20048425      31.06098876      10.18006255       0.31260190       0.18886811      -0.69240992      -0.22853960       0.23975766       0.77983117
C       31.56973714      32.21794083      11.14430881      -0.57499222      -0.59532333      -0.68826423      -0.81259859      -1.84317350      -1.67801714
O       31.44185911      33.38150190      10.84276513       0.37432576      -0.54807350      -0.68241098      -0.18356922       1.54096270      -0.48305410
O       32.03323902      31.87800731      12.31637843       1.08965130      -1.01864315      -0.16306431       0.56597191      -0.23259974       1.68425226
H       31.82750495      11.79396333      12.60362936      -0.15199743      -0.26470506       0.08784829       0.09089245      -0.20358703       0.31811437
H       31.30711990      31.38764093       9.16178453      -0.19493505       0.04434217      -0.04483888      -0.05227891       0.27672589      -0.62507671
H       30.18613093      30.69661093      10.33953465      -0.06795801      -0.14700647       0.21415291      -0.72372037       0.55750394       0.03593468
H       31.71328721      30.12180677      10.31958979       0.11621136       0.06065462      -0.06523717       1.07974315      -0.24646334       0.24648118
C        4.09759682       8.66482148      17.00940684       0.28855323       0.78993667      -0.03481956      -0.73847306       2.09773588       0.23540825
C        3.43076215       9.02361305      15.69118723       0.82381754       0.54122628      -0.69419114      -0.39287341       0.17439981       0.53265452
O        2.38342239       9.95612610      -3.39205750       0.55824798       0.15225202       1.36768947       1.98342013      -1.44969440       1.07589221
O        3.80928456       8.47893656      -4.48892141      -0.63211646       0.17530016      -1.15239017      -0.29188651       0.08600125      -0.40226933
H        4.00641191      12.08652259      21.51480636      -0.36799730      -0.14393837      -0.09693011      -0.93693781      -0.58647346      -0.06806670
H        4.98397443       8.08077472      16.82491803      -0.12253186       0.07648110      -0.22113488       0.56821692       0.06514189      -0.05917891
H        3.44224907       8.08108037      17.64165406      -0.14279281       0.03865845       0.11429151      -0.58539242      -0.12465367       0.31368637
H        4.24892095       9.65000561      17.54220790      -0.15625948      -0.26712442       0.38309152       0.17223197      -1.12740588      -0.33884752
C       13.36852319      18.61801076       2.91426629       1.17916239       0.08254466      -1.14253237      -0.10514009      -0.03267002      -1.82072258
C       12.08054480      19.46164643       2.85957718      -0.11983760       0.27371507      -1.18604830      -0.29755402       0.40580314      -0.47571445
O       12.06685318      20.77216215       3.24501125      -0.13960890      -0.40859246       0.47006158      -0.22022748      -1.41293991      -0.01716933
O       11.06199605      18.99306976       2.32497196      -0.18221470       0.30172662       0.99150581       0.60737747       0.00126338       0.45984206
H        5.80670786      24.03400944      25.70809186       0.37880653       0.25244913       0.21582148      -0.73489010      -0.52059901      -0.69485843
H       14.08759581      18.79458154       3.70801666      -0.08448729      -0.01212765      -0.17007356      -0.26061362       0.42553592       0.37547004
H       13.90177047      18.83032582       1.90911880       0.20089659      -0.24121111      -0.07468887      -0.63300794      -0.30746993       1.39371872
H       13.07168156      17.54782191       2.87269233       0.32535128      -0.04853148       0.20414491       0.12027998       0.52451766       0.04090428
C       23.25999721      -6.63497559      12.69851396      -0.12064727       0.43225930      -1.52917101       0.99471998      -1.36644530       1.88060737
C       22.50841184      -5.41635955      12.36619409      -0.11543867       0.51074398      -0.44913680      -0.94134110       1.68310368       0.08575194
O       23.30291702      14.83249883      12.18163296      -0.90496946      -0.60111250      -0.64863769       1.37017512      -1.17621207      -0.20479250
O       21.28953774      -5.25437806      12.33988921      -1.28852993       0.09238680       0.06209151      -0.15530856      -0.89106274       0.07650065
H       41.95733969      -3.47746844      12.48598010      -0.08084601      -0.19925365      -0.10974177      -0.67998075       0.49866211       0.04424709
H       23.03041464      11.58607010      12.16478332      -0.15832285      -0.11884787       0.04463478      -0.59122276       0.35151577       0.02300242
H       23.20325894      -6.87637773      13.82551910       0.10104904      -0.05009266      -0.19871012      -0.36451834       0.34840316      -1.42949963
H       24.32950529      -6.48844134      12.58051465       0.01064274       0.12741645       0.11702358       0.24675557       0.21912265      -0.25372300
C       -0.52485175      15.37291680      -8.46056300       0.48488678       1.15785485      -0.29753740      -0.02612936       0.38601005       1.05281770
C       -1.73985990      16.23685752      -8.28988246       0.32941069      -1.02012304      -0.34003848       0.44585440       0.95835906      -0.19051901
O       -1.82235538      17.37080796      10.38662944      -0.03052464      -0.49871328       0.72367078       0.08335167      -0.19780612      -0.19903865
O       -2.71891857      15.81886801      -7.47002947       0.22578566      -1.13024988      -0.34783181      -0.03208435      -2.02339554       0.04260677
H       -2.58572470      14.78977466      -7.36238321      -0.36430224      -0.18792064       0.18426212      -0.45829442       0.98801929       0.15127185
H        0.34301627      15.96652848      -8.69484108       0.23343828      -0.19033766      -0.05173142       0.28463367       0.48238635      -0.44148773
H       -0.59329040      14.54705776      10.03723438      -0.25774903      -0.03272740       0.01563332      -0.52810729      -0.74258292      -1.50222230
H       -0.27009250      14.84035012      -7.55411148       0.00003414       0.11006401      -0.04731667       0.08372916       0.01378934       0.92758060
C       15.86615475      10.84871653      11.63963519       0.37217445       0.21873984       0.12851088       1.70800734      -1.48637295      -0.71803451
C       16.45955690      12.23757499      11.25792776       1.57529811      -0.42281720       0.71247958      -0.30033565      -2.71466589      -3.32166862
O       16.44161770      13.13592884      12.11211413      -0.09399252      -0.64513879      -0.73983005       0.32857007       1.87801671       1.36515880
O       16.88069408      12.34519413      10.03186893      -1.18038714       1.10985789       0.65835945      -1.01713097       0.48066658       2.57402039
H       -2.37924904      12.70876967      -5.54945241      -0.03763094      -0.30377032       0.04240726      -0.01066887       0.51798451       0.80213052
H       15.96665068      10.64449171      12.69671321       0.05065058      -0.04899540      -0.04948714      -0.07984172       0.18397371       0.61535454
H       16.45568099       9.97179451      11.13686926      -0.03155724      -0.10628107      -0.09357611      -0.91079843       1.65695286       0.53485310
H       14.82862750      10.67977184      11.36604752      -0.02348986      -0.38060979       0.28285925      -0.33547875       0.28449973      -0.17323749
C        2.96526182      -3.76606048       7.95759043       1.23495500      -1.31589199       0.21415699      -0.40102738      -0.87009853      -0.38508746
N        3.99692669      -2.79483711       8.28247487       0.17884525       0.16554687       0.35610493      -0.03388435       0.32123417       0.81448215
C        4.69579923      -1.95195864       7.42540744      -0.59802473       0.93803812       0.19027760      -0.86945158      -0.55323434       0.11495209
C        5.54224358      -1.24178644       8.20800623       1.50339565       0.71414237       0.08318032       1.28619850       1.03241611      -0.10445273
N        5.39012932      -1.60297097       9.53348797      -0.43256484      -0.25741818       0.13373291       0.75574976       1.37614250       0.09134305
C        4.42737435      -2.47243929       9.55681191      -0.79316368      -0.36095518       1.51008259      -0.46841162      -0.68326092      -1.96884525
H        2.08692409      -3.30232088       7.50436444      -0.19095207       0.16559440      -0.06448210       0.01752016       0.42740044       0.03608941
H        2.61359631      -4.31655772       8.85095462      -0.02690115       0.25152863      -0.21251452       0.30576563       0.35641953      -0.19928071
H        3.29118132      -4.52705572       7.20999840      -0.10348008      -0.27064369       0.09710517       0.19648406       0.43085474       0.47048244
H        4.33690822      -1.80577922       6.43446526      -0.14111946       0.01201959      -0.03271124      -0.03903770       0.05158302      -0.66770989
H        6.27218504      -0.47411108       7.91647805      -0.01533282       0.01249937      -0.23155466      -0.34652823      -0.40871155       0.04721552
H        4.01188923      -2.88770360      10.40630995      -0.22860335      -0.04750911       0.39538246      -0.80532527      -1.04065776       1.55950308
C       18.45337799      16.48182909      14.90087415      -0.50011812       1.12246930      -0.69043469       0.46492150      -0.16689394      -0.06485683
N       17.37946567      17.38526358      15.33013912       0.73063422      -0.33845353       0.85857677       0.65681970       0.86633474       1.12022996
C       16.18785267      17.58735792      14.68148324      -0.09545640       1.20261211      -0.58928097      -0.29966950       1.23765039       0.16889790
C       15.74662864      18.90219998      14.93787974       0.67203138       0.41652717       0.60280165       1.50351954      -1.13007140       0.83301544
N       16.74000412      19.49350772      15.80405351      -0.42554373       0.03373273       1.77088525      -1.66779709       0.10705996      -0.96171391
C       17.65381957      18.58105010      15.99784528      -0.28050923      -0.86262329      -0.64536823       0.50451791      -1.32739222      -0.11845452
H       18.78713021      -2.28662555      13.96966258      -0.07389988       0.01293303       0.27832171       0.42897409       0.57034475      -1.35512030
H       18.12811812      -3.69722534      14.59849704       0.11799718       0.13938261      -0.10814335       0.05034950       0.51718664       1.04243469
H       19.39160242      16.59167178      15.52593995      -0.08929500       0.00001635      -0.02894926      -1.41903341      -0.58336222      -0.03507781
H       15.86830235      16.74220102      14.12943322       0.18987782      -0.15382089       0.18519700      -0.87550575      -0.31742603      -0.79988408
H       14.81185327      19.40726090      14.63683253       0.07966434       0.07248476      -0.00836994       0.79261327      -0.15705049       0.30175522
H       18.55280455      18.63815769      16.61660299      -0.02018054      -0.12515881      -0.22368508      -0.29893267       0.27181220      -0.06749803
C        8.11032893      13.29034555      13.27997345       0.73947161       0.71507956       0.43657313       0.90747237      -0.06412220       0.75241673
N        7.37745035      12.23793185      14.04442626      -1.10759841      -0.74646953      -1.30627917       0.34590116      -0.18607780      -0.03300744
C        7.26303866      10.89390442      13.72562448      -1.37224852      -0.40627879       0.47508184       0.76682568       0.21917483      -2.32672691
C        6.68522752      10.26799409      14.75984056      -0.27692440       0.08193546       0.37274532      -1.26141906      -1.05216658       2.35755944
N        6.34953189      11.21964766      15.76638661      -1.23245838      -0.02246491      -0.27729838       0.23261368      -1.03768635       0.04206967
C        6.81574405      12.35793906      15.32309257      -0.05799992       0.49689690       0.60279124       0.80382407       2.55275035      -1.30401814
H        8.60406781      13.92421611      14.08279448      -0.01062506       0.09073751       0.07770214      -0.55222082      -0.28456396      -1.20844007
H        7.42429802      13.83978960      12.62002197       0.08091762      -0.18437612      -0.01615758      -0.04769434       0.16152537       0.40853381
H        8.92371024      12.90826344      12.58599422      -0.30796984       0.03135081       0.18840330      -0.81114167      -0.15623328       0.99274701
H        7.44718740      10.52647762      12.69522588       0.00396835       0.05377258       0.50198477       0.03003711       0.48427421       1.01326263
H        6.48299013       9.17052425      14.93362440      -0.04016493       0.26777166       0.15167032       0.25326511       1.59577155      -0.38276041
H        6.83534977      13.42703919      15.71168752       0.29486487       0.09787081       0.10955299      -0.44586942      -1.80841589       0.15282185
C       19.56921039       7.62914619      17.20990821       0.34020208      -0.33043606      -0.68793553       0.99527365       0.26619774      -1.69389510
N       18.38909487       7.84494565      16.35881345       0.66772018      -0.32412536       0.41481177       2.13549089       0.31572604       0.82460499
C       18.22128115       8.58076265      15.24694616       0.19057405      -0.29837740      -0.49263446      -1.28370786       2.26495171      -2.37600207
C       16.94895058       8.28988060      14.73429081      -0.49279577       0.19818616       0.11594841       1.30529118      -0.33012313       1.36625898
N       16.40698006       7.33042488      15.56423120      -0.55087841       0.18635110      -0.33111562      -1.18195415      -0.79391086      -1.16759694
C       17.33482324       7.05653336      16.46894949      -0.01790302      -0.31229990      -0.14541373      -2.19011617      -0.58354235      -0.23366898
H       19.35389751       6.65413464      17.63649515       0.46113574       0.08586909      -0.15146665       0.85078049      -0.25103763       0.27823490
H       19.73928886       8.36294429      17.98722481      -0.08678186       0.26665096      -0.16547807      -0.44111297       0.44559962       0.29642898
H       20.47556976       7.71732487      16.52938068      -0.01069979       0.03312391      -0.11362381      -0.95431823      -0.72594565       0.86361444
H       18.73161905       9.46696843      14.87060658      -0.24825251       0.02595642      -0.54704718       0.68163514      -0.44964445       0.72603965
H       16.44272529       8.81455145      13.93600478      -0.04872428      -0.03810237      -0.03403432      -0.22006032      -0.27945772      -0.04099303
H       17.18866433       6.30946078      17.20594275       0.06092124      -0.08589362      -0.31330843       0.23129648      -0.49154773       0.87941575
C        5.09349385       9.21874347       3.69533452      -0.83209636       0.14646163      -0.35198862       1.35963488       1.33122313      -1.22583675
N        4.66586458       8.94819962       5.02023037      -0.32962122       0.71834294      -0.20612796      -0.00536505      -0.06628001       2.51307249
C        3.36406315       9.12323033       5.43043373      -1.21602527      -0.41252641      -0.14883622      -0.68132597      -0.72734165       0.62853873
C        3.28671314       8.94568525       6.79736487       0.76471868      -0.09401017       0.22492852       1.04572237       0.86089057       0.14095855
N        4.65419972       8.72670852       7.29224268       0.23250621      -1.37229057      -0.22876633      -2.48380494       0.09012837      -1.04323626
C        5.37790052       8.68681263       6.18044046      -1.17380407      -0.86132063       0.85223547       0.57177567       0.00006559      -0.18392558
H        6.12860622       8.85584060       3.46405196      -0.22378483       0.11887375       0.24146836      -0.69542211       0.19114470       0.38032955
H        5.07201600      10.35397881       3.49484491       0.09526134      -0.02363606      -0.00209451      -0.13211165      -1.82195044       0.17201149
H        4.38908209       8.69043095       3.06847284      -0.35317455       0.25255459       0.31577820      -0.13183451       0.17586938      -0.77074730
H        2.54039157       9.18241051       4.73110109      -0.09071595       0.44373084       0.08581840      -0.00174442       0.17692669      -0.06468314
H        2.32851956       9.17032436       7.33889145      -0.23213910       0.35858646      -0.06797429       1.56747603      -0.58502179      -0.13390136
H        6.42110382       8.38087233       6.17813544      -0.18561669       0.03105985      -0.11518100       0.00385970       0.13543025      -0.17804381
C        9.28025827       1.02202459      19.05066831      -0.31814479      -1.18113375      -0.12706945      -0.70917243       2.55598116      -0.58869195