640
Lattice="19.152215 0.0 0.0 0.0 19.152215 0.0 0.0 0.0 19.152215" Properties=species:S:1:pos:R:3:momenta:R:3:forces:R:3 energy=-80129.265625 stress="-0.014368719421327114 0.0001664322626311332 0.0015556378057226539 0.0001664322626311332 -0.015904681757092476 -0.0013975974870845675 0.0015556378057226539 -0.0013975974870845675 -0.01991213485598564" pbc="T T T"
C       15.14505063      -7.90285123      18.34487617      -0.03620811      -0.38186091       1.09297861      -1.13902438      -0.75137591      -0.38818097
C       15.52405235      -6.52142754      17.98354801       0.74972188       0.39233847       0.50143860       1.83257675       2.39341354      -1.24247336
O       15.22655044      -6.03232621      16.72192890      -0.49972741      -1.20494648      -0.17782862      -1.16908240      -1.66999197       0.33643427
O       16.31718882      -5.77171240      18.58103446      -0.30583999       0.53292317       0.47702309      -0.92684370      -0.93563420       0.84091735
H       15.23389756     -13.79728301      28.33228420      -0.23971066       0.28779041      -0.20114028      -1.13461590      -0.98971462      -0.58383369
H       14.20449845      -8.12313786      18.94725420      -0.31667753       0.04499581       0.16891768       1.17210078       0.57591510      -0.50546080
H       16.02481183      -8.36332990      18.74876075      -0.28590251       0.22903710       0.10903985       0.61192513      -0.28681016       1.14839792
H       15.07810965      -8.46093477      17.40709841       0.28149538      -0.15386196      -0.16771569      -0.55657804      -0.11705298      -0.32720187
C       -0.98936627      17.50108299      22.18969353      -0.59031582      -1.33288053       0.80929408       2.04403210      -0.95509017      -0.00754088
C       -0.91133633      18.83858130      21.52174059      -0.47681737       0.91677995      -1.27466837       1.02391648      -0.55091619       2.23722601
O       -1.52217714      19.09312130      20.51397935       0.61588956      -1.31855728       0.80450463      -1.50761902       0.06322879      -1.69046545
O       -0.13260472      19.74050343      22.07287539       1.03618979       0.43433872      -1.87298672       1.09758651       0.93145490       0.95124865
H       31.53259486      20.01889258       7.52870164      -0.15189881       0.12712962       0.00559726      -0.25867793      -0.08941442      -0.24401352
H       -1.95841613      17.07993297      22.11771067       0.15122584       0.27978717       0.17813825      -1.25567353      -0.32790399      -0.00638968
H       -0.62024808      17.48481216      23.23886400       0.16520307      -0.05543413       0.03642153      -0.31621742       0.10711602      -0.72901785
H       -0.32857815      16.80352178      21.57863594       0.28594090      -0.07607695      -0.26407158      -0.43410552       0.50731087       0.72993881
C       14.06873017     -15.04432077       6.47410786      -0.06818633       0.07971232      -1.33506528       2.41625714       1.75019383      -0.63219160
C       14.60824935     -13.96532662       7.38011727       0.22478332       0.41002432      -0.19149879      -1.25251770      -0.45192015      -0.41286808
O       14.70104527     -12.77078056       7.12428617       1.21596255       0.49748544       0.21994145       0.51272327      -0.18222785       0.26192859
O       14.81349696     -14.53613506       8.60010995      -0.32799743       0.19258677       1.14865463       1.58333421       2.10391569       1.55571699
H        8.76833967      -9.49462003       3.58935560      -0.01703476       0.00357297      -0.29442752       0.34577432       0.16065079      -0.26718923
H       14.74751392     -15.86156507       6.56524180      -0.21794790      -0.04971581       0.10459670       0.92083514      -1.02867043      -0.30336219
H       14.14818640     -14.62107400       5.47026146      -0.31882242       0.05443113       0.16831301      -0.74862248      -0.37651327      -0.28638703
H       13.17812609     -15.41684602       6.86745549      -0.11261971       0.08748794      -0.13350371      -2.08646154      -0.29991269       0.07469106
C       21.35942093      -5.58378288     -12.67308217      -0.53649001       1.04448909       0.61242937      -0.16002034       0.51100332      -1.61203706
C       20.93439454      -4.38548403     -11.89451840       0.13107012       0.60121763      -0.84626589      -1.64769125      -1.98577535      -0.66620493
O       21.54349968      -4.09092586     -10.85505870      -0.17139516       0.27542517      -0.40390242      -0.18870717       1.27400613       0.30821759
O       19.79745676      -3.89109571     -12.36936250      -0.64486753      -0.18992020       1.52067885       0.37841284       0.85705984       1.39738953
H       19.55874240      -2.84689442     -11.35169535      -0.19442800       0.32046286       0.27426901      -1.16266799       0.97695786       0.15198445
H       21.13018709      -5.45294819     -13.75913765       0.25958419       0.13177531      -0.03822999       0.41145113       0.11380385       0.67089570
H       20.89634038     -25.67202585     -12.41720827      -0.27730402      -0.12791205      -0.02864475      -0.31825513      -0.47667909       0.55364007
H       22.40455978     -24.74796635     -12.50612443       0.02396624       0.06876098      -0.12998303       1.43579054      -0.70119029      -0.21288568
C       21.73306343      43.17376729       3.25422655       0.15228611       0.17947845      -0.52435718       0.84673911      -0.79543757      -0.67394948
C       20.84771000      42.69442266       2.15252256      -0.57511381       0.11217520       0.50995864      -1.29495215       0.54508722       1.51929474
O       21.12250439      41.66104591       1.59061988       0.05115899      -1.29794858       0.19384620       0.11300856      -1.40280366      -1.57073069
O       19.71007321      43.38701651       1.97013354       0.41812068       1.33841124       0.86606894       0.69803262       0.92947698       0.35704559
H        0.53889324      19.48080191      22.92271949      -0.13804174      -0.02803136      -0.08388222      -0.59095389      -0.34426910      -0.68887007
H       22.69358054      42.75289117       2.96581738       0.15322198       0.18976834      -0.02659780       0.52546978      -0.08886167       0.36472124
H       21.52577468      42.87040181       4.26355635       0.38276682      -0.02982565      -0.26696093      -0.61500925      -0.69561088       0.53359216
H       21.84849215      44.20781141       3.30394491      -0.05177408       0.01331509      -0.01181376       0.00774206       2.22760153      -0.11728311
C       18.35262143       7.70260742       9.50124434      -0.42119544      -0.85462003       0.87688714      -0.05755538      -0.01642066       0.26030397
C       19.71353697       7.10262216       9.21911804      -0.40621067      -0.80152063       0.95374721       0.59985530       1.06908715      -1.11536157
O       20.01889138       6.60877394       8.11617872      -0.05162226       0.34168172       1.19973432      -0.58116251      -0.13443905       0.57090431
O       20.65007782       7.38261066      10.13155756       1.00626160      -0.39276058       0.09664558      -0.75536257       0.49532020       0.65718067
H       19.93549993       2.66837258      11.15842271      -0.04748934      -0.03260707       0.12095092       0.14620613       0.16540104      -0.21353155
H       18.26046335       8.54003421      10.18738379       0.05603080      -0.14447245      -0.17813284       0.97524667       0.51083910       0.03769696
H       17.72936331       6.98471050      10.01126297      -0.25897545      -0.14056188      -0.01196218      -0.42299992      -0.95245469      -0.21142006
H       17.88534599       8.07834394       8.59239509      -0.06933432       0.25420340      -0.29787446      -0.13524866      -0.46845752      -0.24204932
C       25.45607150     -12.90396413      -8.54450849      -0.09977647       0.61841232       0.09338413       0.20850527       2.35864210      -0.21310800
C       24.20460475     -12.41432871      -9.39284883      -0.43044631       0.49622858       0.75907945      -0.90456784      -0.61742920      -0.11742669
O       23.01271795     -12.91987415      -9.33428149       0.38678093       2.56984621       0.54695240       2.33802485       0.74904919       0.37339279
O       24.54959722     -11.53211424     -10.28903840      -0.47811800       1.92906006       0.68861126      -0.44746065       0.02848977      -0.54544532
H        8.14448129      -6.24412773      -7.14702779      -0.26295595       0.05883456      -0.26157690       0.06481040      -0.75065750      -0.13155219
H       25.34852586     -13.07482642      -7.43843920       0.33342958      -0.09518389       0.03745903      -0.43418989      -0.40280285      -1.26849401
H       26.27826381     -12.06819349      -8.60037394      -0.19814089      -0.11636114       0.23790235      -1.57836103      -1.18768632      -0.03374943
H       25.84735644     -13.68016989      -9.19437506      -0.37249497       0.05203389      -0.11514336       0.35650513      -0.92305100       0.50469893
C       14.69561821       8.50540854       9.91306122      -0.61109738       0.38265074       0.59176293       2.14464116       0.86941803       0.99203467
C       14.29439067       7.41624718      10.96234284      -0.05065690      -0.09408672       1.16328215      -1.90702569       3.31321239      -2.24761415
O       14.85670214       6.35636437      11.02439046      -0.76879578      -1.02499065       2.71246603       2.06371498      -2.74582720       0.54683620
O       32.28079726       7.71190649      11.49525104      -0.53770498       0.92109306       0.75128437      -0.90883124      -0.51005864      -0.01093161
H        8.94406593      15.28952483       8.22959477      -0.00999757       0.03783170       0.15622727      -1.19507325       0.74660259       1.29081297
H       15.77594347       8.35626390       9.53308552      -0.00958536      -0.13571792      -0.11183684      -1.90491724      -0.24094094      -0.07409422
H       14.79654548       9.53457431      10.36420030       0.13221017      -0.19176963      -0.03375042      -0.37627089      -0.87002361       0.14644854
H       13.89200035       8.62776199       9.17737350       0.08430156      -0.13940050      -0.09706747       0.41611016      -0.39173040      -0.33701667
C       13.92115282      -5.12007991      -9.92388182       0.51021520       0.44814412       0.89834358      -0.69585651       0.15803325      -1.17450023
C       14.75677518      -3.88396808     -10.01818848      -1.06976986      -0.62688595       0.33150504      -0.43836421       0.75963074       1.02011597
O       14.74816175      -3.21689536      -8.86071105      -0.18616578      -0.30598474       1.27363603       1.78097522       1.21551418      -0.38370678
O       15.31680071      15.82185077     -10.96336094       0.51568931       1.18846512       1.18787694       0.00530511      -1.12995172      -0.67651451
H       12.21664945      26.56156447      10.64358497      -0.48927848       0.41989843      -0.03617146       0.34855586       0.22636382      -0.05191124
H       12.93137394      -4.85165944      -9.49946092      -0.26179251       0.04949281      -0.35417168       0.55395412      -0.39062047       0.56698138
H       14.40871650      -6.03525174      -9.52392593       0.20067405       0.02075960       0.04599453      -0.28145030       0.73813295       0.17798445
H       13.64079644      -5.32074414     -10.93648767      -0.33505074       0.10996576      -0.11998404      -0.01921634      -0.50858480      -1.15726197
C      -13.18639148      25.58251360      23.50540517      -0.08460301      -0.55707835      -0.49839970      -0.12572816       0.32932782       1.32714903
C        6.40808947      24.16996940      23.95395694       0.49114981       0.68671172      -0.30887961      -0.99043083      -0.53510857      -3.99866867
O        6.96526032      24.18419023      25.12321937      -0.24115948       1.19078868       0.31015404       0.14519176       0.98745197       1.28408980
O      -12.86849326      23.19569896      23.13694022      -0.50546418      -1.08985770      -0.23601007       0.27373475       1.38609481       2.22951031
H       15.40678814       5.03642749      14.78981695       0.04821999       0.40649182       0.29274720      -0.54759216      -1.18983960       0.82077247
H      -13.76178774      25.57741274      22.60404521       0.02328199       0.09222498      -0.19057254       0.03331755      -0.48310786      -1.16560245
H      -12.29222548      26.24597132      23.40508646       0.27622865       0.03344250      -0.20369335      -0.64407361      -0.26845163       0.03290263
H      -13.93667793      26.06270529      24.19098674       0.03142725      -0.13569301      -0.12939562       1.03549230      -0.48661017       0.12349999
C       28.20867990      30.61652893       7.40360290      -0.27431746      -0.04328696       0.48981060      -1.49731278      -1.38535738       2.91405320
C       26.73378441      30.17849981       7.79909124       0.04192832       1.01806290      -0.37966183       1.74388492       1.39864945      -0.12093037
O       25.83457530      30.45084421       6.99914607       0.31895330       0.00326190       0.04704754      -1.11809993      -0.21342000      -0.65212762
O       26.59885706      29.76423942       9.02644267       0.37110672       0.39783727      -0.74873965      -0.73694241      -0.63852739       0.45259213
H       25.35360600      10.60032405       9.39811836      -0.09489210       0.29344496      -0.03995286       0.14747632       0.57927227      -0.54717612
H       28.10061353      31.67328332       7.24669948       0.35367381       0.18014404       0.10665292       0.56848377       0.79690671       0.03755687
H       28.56866574      30.12382094       6.54308073      -0.23914178       0.03785133      -0.21841999       0.32889315      -0.62057960      -1.33590174
H       28.80185974      30.31649048       8.30766265       0.31255166      -0.05455307       0.15555796      -0.14864582       0.72756249      -1.04076576
C        4.95941471      11.85580556      17.16951031       0.33859483      -2.22116791       0.54363734       1.97347808       1.86096156      -0.81514704
C        3.76918570      11.60796573      18.03303270       0.31754306      -0.08226665      -0.10387297      -1.00564003      -0.93937832      -3.18902636
O        3.94786590      11.26627689       0.05021376      -0.07416284      -0.68595930      -0.10693423      -0.56175542      -0.04953384       1.54602575
O        2.64045035      11.65199076      -1.79939981      -1.53877811      -1.23421896       0.12994929      -0.23461092       0.14051548       1.13647699
H        4.64804298      14.98349844      23.05046428       0.30367449       0.30653464      -0.22175120      -0.11713509      -0.57285583      -0.81715691
H        5.46496209      12.72548225      17.67287606      -0.13825997       0.07783416       0.14713020       0.28919515      -0.73371822      -0.34149832
H        4.79612847      12.22206241      16.13100713       0.14169032       0.26174190      -0.03038588      -0.51490712      -0.26944152       0.54306936
H        5.68341887      11.02804313      17.04456561      -0.40144743      -0.07556406      -0.12305066      -0.26873207       0.17437801       0.62537777
C       14.58835287      18.05353792       5.62803319       0.01367128      -0.36274010      -0.27761882      -1.15344906      -1.95875871       0.94234616
C       15.47071202      19.18694243       5.89481434      -0.27507628       0.83261695      -1.33750253       0.62628210       0.53752983       0.21924707
O       15.58523819      20.01002974       4.86347009      -1.16143365       0.19525851       1.28368931       0.91132921       0.68708026      -0.63154650
O       16.05072028      19.31611434       6.98117745       1.29624498       1.14415003       0.40357311       0.10733849       0.08608297      -0.00283778
H        7.11270868      23.30069409      25.63972072       0.21863312      -0.01536602       0.03888444       0.42091987      -1.02312827      -0.13989206
H       13.52948855      18.36977330       5.58555949       0.15865546       0.00448466       0.11122066       0.31548169       0.01733582      -0.12894644
H       14.67661591      17.43672206       6.56277941       0.15509082      -0.13690626       0.01847397      -0.15198329       0.02529606      -0.98487139
H       14.82246082      17.45321144       4.72398115       0.02796817      -0.14360026      -0.02041528       0.06698138       0.40595198       0.36140063
C       20.77402927      -3.02309889      11.88275934       0.36363135       0.62206042       0.76200119      -1.39995384       3.03462505       0.06592888
C       21.12768336      -1.75820268      12.66292380      -0.90145519       0.46584756      -0.25029826       2.26689482       0.32796240       1.32312274
O       20.68473205      17.32599373      13.94733466       0.67333401      -0.10923912      -0.93101462      -0.40366226       1.24542928      -0.64782941
O       21.90803882      -0.85312498      12.28144940       0.11848624      -1.15446703      -0.68717926      -1.13106441      -0.74084800      -0.32046062
H       39.87593644      -0.84007944      14.43608453       0.01665124      -0.41131169      -0.00643914       0.14117025      -0.96034813      -0.42969537
H       21.49517252      15.68791182      11.25545545      -0.32613284      -0.11980941       0.18388040       1.19814062      -0.07907765      -0.93140519
H       19.89258886      -2.66241702      11.31849904       0.12738306      -0.15636626      -0.19816423       0.18737572      -0.52869654      -0.47938147
H       20.41448138      -3.67019387      12.60072565      -0.00283711       0.01903906       0.05699319      -0.78741002      -1.92564678       1.51164818
C        0.02831234      11.69649774      -3.87304289       0.22420582       0.31142532      -0.27796983      -0.83218706      -0.65412092       0.23814172
C        1.18486526      11.80886505      -4.82545822      -0.05236787       0.68556310       0.64441473       0.69783723       0.57715625       0.01577884
O        1.05074259      12.05304769      13.14345205       0.51250002      -1.11428353      -0.59792197      -1.12391901       0.05987599      -1.76079440
O        2.44992847      11.73804321      -4.39089789       0.14290513      -0.06842472      -0.04237814      -0.51586568      -0.03034792       1.83888280
H        2.42925982      11.78474345      -3.32191816       0.27857300      -0.07383352      -0.08866901       0.88426983      -0.42578828      -0.14860459
H        0.00069961      10.66810753      -3.40627759       0.21475921      -0.03037611       0.22572112      -0.05926718       1.07297206      -0.18035951
H       -0.96578719      11.96320110      14.85343405      -0.27224960      -0.20171353      -0.19872806       0.61824626      -0.63538563      -0.54294974
H        0.09623326      12.47268242      -3.12697565       0.10100407       0.03094685      -0.07044993       0.55285782       0.07174402       0.96905494
C       12.96200640       9.38314331      14.53949316      -0.10604655       0.68623900       0.22230892       1.53547287      -0.86175591      -1.58849597
C       13.78685903      10.57340704      14.00151319      -0.16420097       0.12960903      -1.00217690      -0.09552479      -0.81585419       1.85641825
O       14.21856346      11.41623105      14.85949095      -0.41311372       0.49973125       1.60457407      -0.06898558       0.08018863      -0.64916325
O       13.98089937      10.55381837      12.74919854       1.07613231       1.20072174       0.49393658       0.74968207       0.67591786      -1.27231669
H       -4.37436816      12.37927121      -2.96546646      -0.12122569      -0.14299330      -0.07138496       0.22163028       0.67609018      -0.19740248
H       13.18280612       9.23045798      15.59835035      -0.20414115       0.04028010      -0.33363473      -0.44193178      -0.16598281      -0.07671329
H       13.23542420       8.45234222      13.89563222      -0.08854804      -0.06563892      -0.02726267      -0.44568813       1.48553324       1.17629409
H       11.93311256       9.60106893      14.31098576      -0.15679984       0.18532638      -0.49858559      -0.85774207      -0.03594011       0.23315346
C        5.14434010      -1.05889652       9.88616393       0.02693988       0.86272526       0.62981620       1.03858078       0.41495216      -2.14324570
N        5.86991484      -2.13766245       9.26337923      -0.23237080      -0.34075015      -1.17605212       3.06585169      -1.79494715       0.03465070
C        5.39929526      -3.30844763       8.65744176       0.57956771      -0.69954635      -1.03551698      -0.57460940       1.35572004       0.13722049
C        6.47008358      -4.11306966       8.47499723      -0.64015288      -0.69309104      -0.03352518       0.48438907      -3.10594082      -0.45728952
N        7.60415100      -3.59588483       9.05081667      -0.55918226      -0.43813095       0.09514414      -0.38194060       0.09136581      -0.40445387
C        7.25229239      -2.39147877       9.42125390       0.22312132      -1.34198047      -0.06696943       0.26145595       2.46079111       1.10636759
H        4.73096732      -0.50115327       9.06520169      -0.22386140       0.47390785       0.03677501      -0.93626869       0.33613810      -0.32676601
H        5.82037338      -0.34398589      10.31800023       0.08450592       0.15829426      -0.35005671       0.47064012       0.04063959       0.94294083
H        4.41042944      -1.46605433      10.50081875       0.01918370      -0.01457114      -0.09501832      -1.44267070      -0.26123860       1.50936365
H        4.35093773      -3.41417816       8.47114691      -0.20549739      -0.09126655      -0.06915512      -0.46169123      -0.24630398      -0.15885732
H        6.57194605      -5.12755328       7.99062649       0.22675301      -0.18694596      -0.01121957      -0.62302732       1.24794686       0.50611848
H        8.02856977      -1.60785243       9.68655472      -0.04463693       0.25125388      -0.05902675      -1.39104581      -0.94811964       0.08513543
C       17.07022185      15.15951345      13.11516353       0.09866264       0.36466999       0.99991236       1.73206115      -1.16465914       1.96897268
N       16.76198182      16.13061890      14.13017835       0.48519687      -0.32967747      -1.53414078       0.73656142       1.77685571      -0.72114825
C       17.18288269      17.46559141      14.07921093      -1.22183130       0.64297374       0.50368473      -0.35599047      -0.07424850      -0.04818767
C       16.43998022      18.17127304      14.99842108       0.72005753      -1.24000847       0.75467750      -0.92808527      -2.05483317      -0.23934923
N       15.56443379      17.27085262      15.60596285      -0.51428417      -0.05736634      -0.47233489       0.10158713      -0.82904959       0.61831439
C       15.85105661      16.04036410      15.10397309       0.47085415      -0.27746282      -1.16406947      -2.17463040      -0.67026758       2.03365374
H       16.28215731      -4.23558447      12.45271794       0.40787160      -0.32057174      -0.27123019      -1.17713952      -0.18388170      -0.63469791
H       17.36184767      -4.87925317      13.74447879       0.08173008      -0.03972562      -0.00296478      -0.14514546       0.16470921      -1.17641354
H       17.93679634      15.50850120      12.55710644       0.19632755       0.02908934       0.14579700       0.14793123      -0.05951659      -0.09122935
H       17.86003331      17.77941244      13.32224996      -0.21638022       0.11745959       0.25873419       0.60996431       0.18903582      -0.39945006
H       16.32541706      19.21058233      15.21243451      -0.13961358      -0.45687452      -0.04665491       0.22608176       0.60696781      -0.12292140
H       15.42616853      15.01777012      15.52867471      -0.05368748       0.26733648      -0.21088610       1.03377414       2.49773169      -1.11484838
C        5.31626568      16.01683571      13.56581102      -0.95328945      -0.09882763      -0.14107091      -2.43943715       0.93265772      -0.08214322
N        5.90547276      14.81117232      13.16840643      -0.22914289      -0.25761226      -0.80039695      -1.24132025      -0.25558588       1.42372322
C        5.22578636      13.63348029      13.40865619      -0.13985514      -0.60706165      -1.00158373       3.09202242      -0.94479215      -2.12751508
C        6.07291808      12.67732414      12.83779399      -0.34655731       0.12238657       0.20212390      -0.95507717       0.77054989       0.54773819
N        7.18565978      13.34166302      12.34144703       1.06709391       0.19663513       0.98842207       0.11719155      -0.91624057       0.40480888
C        7.09677524      14.63640445      12.62381568       0.73473090       1.07063576      -0.72277820      -0.62675428      -0.53752100      -0.64950663
H        4.50428203      16.27657900      12.86039772       0.01899521      -0.11707723       0.42957493       0.55675465       0.35981682      -0.13942370
H        6.04862495      16.77542061      13.64346722       0.12928291      -0.22496219      -0.10333541       0.67338079       1.10045397       0.22004354
H        4.72730104      15.85329951      14.47354068      -0.19712527      -0.11299379      -0.00732265       0.54521620       0.23246336       0.46135157
H        4.27045069      13.59800465      13.84227842       0.01606455       0.10409713      -0.13409827      -1.07809603      -0.12191342       0.43938437
H        5.88251810      11.61408968      12.86082355       0.01777382       0.05516793       0.48548466       0.33971900      -0.07923377      -0.36105609
H        7.77708259      15.41637105      12.37274026       0.20394119      -0.06371617       0.07477762       0.37725198       0.50523806      -0.06570976
C       17.92160811       8.83567374      12.75512352      -0.51399558      -0.01752440      -0.23742502       1.08596575       1.47211051       2.69176006
N       17.30453174       8.26622381      14.01488790       0.68117137       0.27736283      -0.97095826       0.16561832      -1.03224826      -1.05364501
C       16.53798710       8.87914393      14.99056091      -0.25424350       0.21427392      -0.12691870       0.33225161       1.40463614       0.32846895
C       15.91600621       7.87716424      15.69472677       0.22521905      -0.37711182       1.18532138      -0.02943087      -1.58082628       0.74546373
N       16.34136709       6.62295159      15.21828389      -0.20591745      -0.84811590      -0.54706780      -0.24411838       0.60082102      -0.93581766
C       17.12437344       6.92158139      14.18408390       0.15047166       0.54646031      -0.61530548       0.50535357      -0.91581500      -0.74334198
H       18.19356217       8.08974100      12.02745886      -0.00807391       0.19059392      -0.20058006      -0.35132772      -0.58124828      -0.10770464
H       18.89767256       9.35000686      13.06980633      -0.46637293      -0.01131869      -0.15432018      -1.20561337      -0.45336381      -0.50081062
H       17.22460503       9.60442882      12.43427944       0.30879695      -0.51270725      -0.07957138      -0.03315036       0.07184539      -0.57680786
H       16.66227839       9.96196499      15.17226719      -0.11771535      -0.13399765       0.11304299      -0.43763679      -0.69935584      -0.13386926
H       15.20496141       7.76906251      16.52596246       0.23856504      -0.16087476       0.25605954       0.27564928       0.89719653      -0.37277251
H       17.47124835       6.19512932      13.41612354      -0.29907616      -0.12384583      -0.05957128      -0.13908717       0.49437144       0.71295345
C        3.69032880      10.87419042       4.33596765      -0.32586740      -0.38290074       0.09441559       4.98771095       0.40747643       0.99072111
N        3.85948986       9.69324056       5.18234310       0.75328706       0.70788646       0.16468218      -2.16382670      -0.97848201      -1.19573927
C        2.71100477       8.86979079       5.12852006       0.28061936      -0.70357211       0.63196000       1.76760364      -0.68236005       1.35334742
C        2.94650144       7.90458822       6.07400768      -0.26094041       0.03395838       0.74938651      -3.11141872      -2.48626280       0.62207574
N        4.12872650       8.11028270       6.62012457      -0.58603065       0.19757124       0.24547347       3.49574137       0.39070356       2.86200619
C        4.73946109       9.19747942       6.10660471       1.09257253       0.06790386       0.08091409      -0.98357105      -0.05089926      -1.13553357
H        4.66363418      11.42541151       4.51339760      -0.17011260       0.06418091       0.07446787      -1.16924822       0.15288652      -0.43447965
H        2.87382619      11.37981638       4.70071318      -0.06653714       0.00472174       0.18223586      -1.88718617       1.56554413       0.71844757
H        3.61134666      10.66505469       3.29313401       0.25491738       0.01008141       0.06420713      -0.13536412      -0.55339962      -0.86468816
H        1.85953367       9.07558337       4.52277734      -0.15357079      -0.19771572       0.01936397      -0.05906954       0.16280420      -0.44771785
H        2.31541411       7.04996881       6.54889578      -0.11133669      -0.23683758      -0.14009892       0.80474937       1.70092130      -1.21191418
H        5.78572267       9.47074021       6.27570987      -0.10259732      -0.21916767       0.09883904      -0.56385899       0.24954066      -0.03548245
C       13.20365854       0.38589421      21.06278659      -0.02207187      -0.57406445       1.03533658      -0.72993189      -1.74809027      -1.55247092