640
Lattice="19.152215 0.0 0.0 0.0 19.152215 0.0 0.0 0.0 19.152215" Properties=species:S:1:pos:R:3:momenta:R:3:forces:R:3 energy=-80129.875 stress="-0.020815519616007805 -0.0006941136671230197 0.00028422215837053955 -0.0006941136671230197 -0.017604893073439598 1.5666348190279678e-05 0.00028422215837053955 1.5666348190279678e-05 -0.022904112935066223" pbc="T T T"
C       16.22985458      -6.58926707      15.97833843      -0.42264809      -0.23151357      -0.04739592       0.92997873      -1.89291203      -1.40471888
C       15.68865851      -8.03075097      15.98683720       0.23021874      -1.04013833      -0.10948704      -1.20690846       0.07338476       0.85111380
O       15.40126452      -8.74488512      14.85765771      -0.54092990       0.28742619      -0.41851878       0.25030026       1.19371223      -0.15684761
O       15.38220382      -8.54332782      17.08298268       0.52042434       0.30573446       1.57981205       0.30780417       0.00376225      -0.59921402
H       14.80656935     -12.83958045      26.65310477      -0.14700482       0.13477564       0.15093567      -0.54601765       0.45934626      -0.31598723
H       17.35098364      -6.68402451      16.06464739      -0.14436836      -0.07057328       0.09619215      -0.94858599       0.52933788      -0.69289219
H       15.89625916      -6.04110805      16.80329249      -0.13521028      -0.22952818       0.07187519      -0.66045231       0.54895204       1.99132943
H       15.82819405      -6.00291452      15.15334465      -0.45458483       0.04522114      -0.20184242       0.60988057      -0.11636190      -0.75446659
C       -2.50325050      17.63693823      17.85520847      -1.09327706      -0.67408361       0.07471106       1.07937932       0.01141989       1.76393580
C       -2.45363019      16.36180315      18.67793875       0.44893141       0.37453573       0.17832179      -0.75206769      -1.61568797      -1.78490067
O       -3.05812552      15.37119515      18.18138777       0.12758965       0.34450734      -0.01774320       0.80232078       0.78904575       1.56203294
O       -1.69301851      16.27703701      19.77528041       0.34722360      -0.43295048       1.30407480      -0.62562221       0.81066000      -0.20122838
H       33.64438149      20.48661678       8.59125413      -0.18210824      -0.22999557      -0.00875637      -0.25071180       0.27146232       1.18267071
H       -3.05118505      18.39867965      18.40338638       0.19468175      -0.22163839      -0.17322208       0.10739233       0.47825503       0.34018415
H       -3.08881852      17.37903234      17.01679619       0.07534461      -0.12393293       0.05668655      -0.35496622      -0.16223730      -1.47605348
H       -1.46450488      17.96356975      17.65057836      -0.24962307      -0.19744042       0.27237906      -0.49267781       0.19471593      -0.17581056
C       13.89250202     -12.01624784       4.51584523       0.63122915       0.61026287       0.12131108       0.62491870       0.51321363      -1.06839442
C       13.92012090     -12.81387823       5.71589501       0.26647559       0.59799836       0.98719394       0.34626120      -0.95652586       3.98796105
O       13.41314899     -13.90515684       5.97695607       0.28029606      -0.38870992       0.20144682      -0.32462913       0.29179266      -0.93382913
O       14.69831272     -12.21554150       6.72831063       1.51803323      -0.33601946      -0.97574793      -0.01040614      -0.42632127      -0.41175577
H        7.18164197     -10.33791741       5.09777748      -0.09213259      -0.24043211      -0.35968590      -0.09862334      -0.07907200       0.20566897
H       12.88154923     -11.76701365       4.16575505      -0.13742491      -0.17323266      -0.03751225       0.09638777      -0.44354281      -0.19098878
H       14.48124999     -12.68043240       3.85523236      -0.15076828      -0.51373335      -0.16649977      -0.52541906       0.55522275      -0.71896029
H       14.43275078     -11.07026688       4.66058654       0.47035893      -0.28579821       0.06963205       0.00809087      -0.14985868      -0.05910847
C       20.74865635      -3.91694035     -12.88242005       0.90490592       0.16373350       0.12563730      -1.97078657      -1.44290781      -1.25285578
C       20.52870132      -2.61824488     -13.59233736      -0.19960120       0.61624304       0.40005605      -0.91955233      -1.36205935       0.47175235
O       21.40811247      -1.80963423     -13.63245449      -0.54271639       0.93168056      -0.86954125       2.24325347       2.30297279      -0.14782518
O       19.34932919      -2.35322027     -14.15109068      -1.02294520      -0.69833229      -0.46734039      -0.16063994       0.32181251       0.08695215
H       15.47587057      -2.81785403     -10.18393949       0.15628686       0.09417183       0.04388641      -0.78001958      -0.65863824       0.44470349
H       20.47434544      -4.79112170     -13.56057702      -0.00688478       0.12355191       0.32526209       0.36184436       1.06542099       0.79557443
H       20.04993234     -23.16379791     -12.04244105       0.10741103       0.05867242       0.18987243       0.12166813       0.06964353       0.20727590
H       21.76185544     -23.11418598     -12.57892840      -0.05459590      -0.13923559       0.11238582       1.09837401      -0.18725705       0.49863079
C       20.43568196      45.59608083       2.58051661       0.33141976      -0.65811839      -0.02902319       1.63734746      -1.64951324      -2.66454029
C       20.14632093      44.53685707       1.40732669      -0.04910025       0.60068315       0.29439590      -1.46040225       2.55346680       0.76131523
O       20.99137724      43.84500376       0.85444218       0.11576486       0.72487960       0.08722311       0.38217992      -0.63934863       0.02640420
O       18.87085761      44.68876077       1.00368794      -0.62852165      -0.50267952      -0.60982545      -0.19245017      -1.11832583      -0.17886306
H       -1.37372627      17.24978584      20.06553381      -0.19607384       0.02873051      -0.06651773       0.42333663      -0.61695182       0.41181260
H       20.21703803      46.61792984       2.23402661       0.09409352      -0.16209892       0.25844332       0.08759649      -0.24745269       0.22811246
H       21.50934300      45.39332912       2.73613801       0.18687605      -0.00157214       0.18752246      -0.25090569       0.70135218       0.25279287
H       19.91194358      45.33608294       3.46034995       0.01505058      -0.14144411      -0.26475649      -0.94287753      -0.14302632       1.06272340
C       19.05530171       9.48791856      11.17177255      -1.17570485       0.58167088       0.50619122      -2.02594280      -1.49636436      -0.25804228
C       19.84482984       8.30654527      10.78517981      -0.88493257       1.03598980      -0.71251219       2.26864123       3.00402737       1.04250669
O       19.31862408       7.42201750      10.18893395       0.66944293      -0.45174432       0.25157795      -0.41776550      -3.21596670      -1.42071247
O       21.18252778       8.48546400      11.11055904       0.31496539       0.27497598      -0.12076146       0.09971142      -2.59661150      -0.24584883
H       21.26260355       3.84338957       7.77623986       0.06738004       0.23919150       0.04137762       1.16303015      -1.54664075       0.11994064
H       18.22466098       8.97398715      11.73186581       0.02831310      -0.02031949       0.02050325       0.24528515       1.11495042      -0.18393594
H       18.63205652       9.91520193      10.25357357       0.11017020       0.49726119       0.08560389      -0.14131247       0.15448222       0.24173896
H       19.57818616      10.18514980      11.74478035      -0.01384186      -0.19914672       0.07142626       0.74014378       1.25457025       0.98200631
C       24.41898397     -14.39291652      -7.92553524      -0.59362010       0.39288012       0.13771162      -1.10321915      -0.89794135       2.23700738
C       23.69830439     -13.23372296      -8.52607885       0.35356717      -0.37405065      -0.38588061       0.79541451       0.05780816       0.33679146
O       22.49624235     -13.04025710      -8.14428230      -0.26977441      -0.92085916      -0.02857551      -0.05031371       0.86968285      -0.61313671
O       24.44722684     -12.61188596      -9.37013005      -0.91398771       0.37718500       0.02813203      -1.16852927       0.85823774      -0.20109451
H        6.93875020      -6.43734272      -6.92900708      -0.01345448       0.20869023      -0.11112705       0.19613785       1.12549531       1.18647814
H       25.18157779     -14.15930169      -7.16305025       0.16053316      -0.08133912      -0.21571171      -0.01536186       0.52498400      -0.18243298
H       24.92893279     -14.87776072      -8.71630921       0.06847672       0.14653092       0.04794834       0.49228591      -1.02218390      -0.77798367
H       23.66508610     -15.01792510      -7.37332715       0.08915876      -0.14180405      -0.03523675       0.69276339       0.10806751      -0.66112745
C       15.67697420       7.69185827      11.05160509       0.15522151      -0.19304224       0.77335688       1.74121296       0.21790570       1.10332656
C       14.49349072       7.21138028      10.32507863      -0.02801330       0.17545781      -0.09350563       0.72179997      -1.05912590      -0.37768245
O       14.62884608       6.18378481       9.63549059       0.97974960       0.35313054      -0.44627682      -0.15440381      -0.60153991      -1.31106603
O       32.51840826       7.80633721      10.51191787       0.09148331       1.89557495       0.50408233      -0.70449537       1.01600075      -0.26105088
H        6.22828201      16.58204750       8.89149050      -0.09349854      -0.51618294       0.23798396      -0.62334782      -0.16291448      -0.44524592
H       15.58496941       7.39969953      12.11581479       0.07031622       0.16293546       0.38047346       0.05464724       0.43817362      -0.06321106
H       15.92985121       8.73329536      10.93281915       0.32056467       0.23566512       0.25877065      -0.82489580       1.08426976       0.40469065
H       16.65824044       7.30556824      10.73101436      -0.12122677       0.28294405      -0.07597038      -0.45803699      -0.94210517      -0.34031990
C       14.58614751      -3.88712119     -12.24242184       0.29181670      -0.08506380       0.36297407       1.31642008       0.01470452      -2.04376221
C       13.73628515      -3.55144487     -11.12911701      -1.35148980       0.25628487      -1.48477513       2.30578470       0.62221736       4.39636850
O       14.46049244      -3.10753022      -9.98879881      -1.15043029      -1.02013421       0.56142953      -1.20980656      -0.10942587      -1.66190243
O       12.54695753      15.39415732     -10.97084482       0.11189736       0.01064735      -0.05710251      -1.34721923      -0.10134850      -0.72663957
H       12.49383638      26.57320631       9.71962944      -0.24936575      -0.10388698      -0.04126765      -0.31834805      -0.05080569       0.44594634
H       14.46906991      -3.11639181     -13.04054847      -0.21760416      -0.28706748      -0.06772540      -0.11575668      -0.75239712       0.06863970
H       14.33790412      -4.88994392     -12.58915292       0.06889050      -0.01896457      -0.17148146      -0.37928003      -0.07164671      -0.53647894
H       15.67506461      -3.96411601     -12.04214369      -0.03642225       0.01582786       0.47279021      -0.53397524       0.23601589       0.34342536
C      -16.34001351      23.67598603      23.12444050       0.54461704      -0.21521634       0.74206487       1.50110388       4.35932684       3.05422449
C        4.19856038      23.70678772      23.79974230       0.79925769       0.06752679      -1.36852389      -0.72907841      -2.41946125      -0.39438099
O        4.61307803      22.40566752      23.98549065       1.07059880       0.09197514       0.90850159      -0.31399453       0.94810057      -0.25429243
O      -14.33997878      24.71570946      24.08250133      -0.34480759      -1.85523553       0.72940097       0.61568952       0.63027507       0.31515086
H       18.02490381       6.93803003      15.04923055       0.02823774      -0.00345629      -0.09366235      -0.10192566       0.29949442       0.43139547
H      -16.93853113      24.46475200      23.72983447      -0.08242511       0.11053446       0.27284089       0.65278780      -1.19190598      -1.23057246
H      -16.74093402      22.75896939      23.24583215      -0.05158383       0.24761203       0.06091220      -1.54163456      -3.17970443       0.08287007
H      -16.16645177      23.99831065      22.13908940       0.19162434       0.11180018       0.14945898      -0.30179530       0.33096200      -1.62443185
C       28.00121083      32.55639016       8.77235041       0.78027655      -0.37346210      -0.01822717      -0.05876650      -0.68721139      -1.30115116
C       28.52464119      31.46369591       9.69474435      -0.77350143       0.01291309       0.62023713      -0.73673427      -0.60362256      -0.47753891
O       28.67125121      30.26387149       9.37830679       0.43543665      -0.45438063      -0.67318108      -0.01448716       1.07104230      -0.34068501
O       28.69044797      31.91197721      10.91776346       0.28733894       0.99814316      -0.36910640       0.36720008       0.66469097       0.54507899
H       29.05381292      12.00875055      11.56199064      -0.19256597       0.06028555       0.04729255      -0.09711212      -0.30441856       0.34229654
H       28.32477882      32.29916013       7.72483262      -0.19887493       0.22222470       0.08055809       0.47880527       0.81181014       0.76213527
H       28.05199107      33.60251867       9.12816369      -0.11364051       0.15671749       0.19091302       0.77259290      -0.52717257      -0.24520656
H       26.93395396      32.44442863       8.59133701      -0.33307665      -0.12843631      -0.19293015      -0.75152212      -0.44644833       0.43767816
C        4.80254461      11.57256902      17.50089715       0.18440512      -0.12625141      -0.56105874       0.37514690      -0.30750775       2.44427061
C        5.07053144      11.32140136      16.07184550       0.02472866       0.27391067      -0.34048498       2.67286992      -0.25187308       0.44814992
O        6.26806805      11.11856162      -3.49506444      -1.40685582       0.47625366      -0.77465864      -1.11290932       0.16496134       0.05890572
O        4.03534125      11.35048607      -3.79785071       1.55881243      -0.00397561       1.65581176      -1.32101846      -0.04144669      -2.08595061
H        4.18495654      13.33877487      21.91533102       0.23841066       0.11173137      -0.24054852       0.07948953      -0.89122510       0.28408444
H        4.91896159      12.63468706      17.78059251      -0.08230677       0.03574273       0.06445749      -0.57598108      -0.13898730      -0.22148976
H        5.42210970      11.04344620      18.27041405      -0.03188438       0.05059463       0.14504837       0.30891794       0.10234398      -1.13946033
H        3.83418393      11.13337454      17.73603671       0.10797717       0.09167226       0.38062696      -0.61996412       0.78737837       0.08826283
C       15.98172661      18.17562982       5.31223187       0.69044561      -0.02055163       0.10745696      -1.00862026      -1.03693318      -0.25269353
C       15.25856055      17.85929067       3.97739337       0.35778832       0.30139833       0.54840416       1.29959917      -2.49359059       1.45382977
O       15.34888393      18.80662566       3.08514861       0.83969718      -0.09084281      -0.26817920      -0.71389157       0.20344961      -1.72214580
O       14.76361280      16.68751872       3.81371570       0.91118098      -0.02824508       0.36448814       0.32298839       3.03170633      -0.31754333
H        5.46707648      22.26488405      24.55566455       0.03882551       0.35273159       0.11106526       0.02211058       0.46616596       0.26221332
H       16.82510977      18.85763468       5.26777161       0.21846327      -0.03818034      -0.23058117       0.42735404      -0.19490287      -0.58847177
H       16.23467727      17.19115934       5.80125466       0.27912405       0.13737660      -0.31790023      -0.24098474       1.19512200      -0.32980579
H       15.22437926      18.76596509       5.83267145       0.38232153       0.28977430       0.27710570      -0.20811939      -0.32821298       0.78500116
C       23.31872944      -2.67786297      14.98173542       0.01603325       0.50759097      -1.26930432       0.08289780       1.04998231       0.36151025
C       22.50941026      -1.40068415      15.08492968       0.75553201       0.42650533      -0.06813771       0.09334475       0.48278904       0.68512142
O       21.91162260      18.13760868      13.92954978       0.53330353      -1.48345800      -0.42889268      -0.07041240       0.48765737       0.62461466
O       22.49054569      -0.75998819      16.15589091      -0.85068195      -0.01263206       0.10257916      -0.44830072      -0.05321658      -1.11736214
H       40.68611663      -0.01410448      13.88171497       0.10269798      -0.20762884       0.15956852       0.40653035      -1.31173801      -0.43999940
H       22.93379965      15.79055651      15.75315948      -0.05033498       0.10966088       0.06243114      -0.24154708      -0.54728651      -0.75307781
H       24.27903754      -2.42387703      15.46017116       0.02547787      -0.13659175       0.01326738       0.04454001      -0.02487313      -0.35334748
H       23.50725946      -2.98163571      13.93472944       0.15636682       0.08411904      -0.06253212      -0.36521173      -0.41719082       0.69693691
C        1.02107108      12.10371473      -5.76411058      -0.42967565       0.88610917       0.77435681       1.91483450       0.48876324       1.75080240
C        1.07446799      12.79765887      -4.37044977      -0.12565715       0.16305860       0.68419830      -0.25055376       1.05245888      -1.02202368
O        0.02942123      13.28382396      15.25387080      -0.25850716       0.88345519      -0.68103375       0.41703898      -0.62775576       0.11005676
O        2.23395817      13.06440592      -3.77739343       0.22673726      -0.05997086      -0.53722444       0.05565050      -0.10259581       0.43198001
H        3.03895840      12.36391540      -3.80128259       0.43362722       0.07010146       0.05606628      -0.03299803      -0.29121041      -0.24137954
H        0.01397421      12.10948151      -6.06956266       0.07570734       0.10230901      -0.30899924      -1.48808432      -0.00041010      -0.61222142
H        1.35240235      11.08124344      13.58990691      -0.02764454      -0.19975394      -0.03992090       0.23046283      -0.15012524      -0.49745697
H        1.67265456      12.65029930      -6.48674985       0.07475602       0.27198502       0.12594650      -0.37147757      -0.64868480       0.43550465
C       14.25285937      12.64343728      12.29761762       0.11850746       0.47425075      -0.89931445      -1.09175897       1.11103654       0.10692266
C       15.74927073      12.39800948      11.96414725       0.67506712       0.58351635       0.64945467      -1.35531235       0.30269933       0.68080354
O       16.30154623      11.50212341      12.66747775       0.31205889      -0.33555065       0.41750599       0.64962482      -0.48677146      -0.12818062
O       16.28248833      13.19593684      11.12339947       0.44461970      -0.10033876       0.41396428       0.35039812      -0.40333778      -0.18085194
H       -3.64134913      10.93857714      -5.20228075       0.22317012       0.37569231       0.51466120       0.72437882      -0.16910082       0.61588818
H       13.85925665      13.41139480      11.54962472       0.06178459      -0.06784115       0.01676126       0.22985098      -0.97879601       0.96390384
H       14.16155346      13.09601538      13.34637042      -0.09426816      -0.20328175       0.19914967       0.18601170      -0.32301196      -1.24844873
H       13.57919624      11.74045015      12.35470302       0.01510362       0.09693971      -0.35784343       0.92355627       0.62512183      -0.34911948
C        2.02235613      -3.60293286      11.65579817       1.05830564      -0.09594953       0.26205947      -1.60408568       1.17514503       1.67655873
N        3.08517342      -3.92197658      10.79925294       0.22469400      -0.87886782      -0.46528605       3.59809828       1.51726484      -1.45675647
C        3.06746851      -4.63721025       9.60795466      -0.39138827       0.84434678      -1.54010500       0.03726864       0.83465654       0.53633046
C        4.18158288      -4.25984165       8.84267774       0.32294348       0.54296781       0.54685884      -1.20270097      -0.11187702       2.26552844
N        4.84967940      -3.24270911       9.53633689      -0.13620333      -0.75680472       0.31376097      -0.07536867      -0.35322657       1.18412578
C        4.22075228      -3.07206261      10.73653703      -0.25571127       0.62348934      -0.81325431      -0.73171139      -2.03785276      -2.78152347
H        2.35213962      -2.93826581      12.50862624       0.02582084       0.16711425       0.10062075      -0.12836227      -0.79547673      -0.85788184
H        1.53281384      -4.48489864      12.05142504       0.01201425       0.24467992      -0.20457326      -0.05208691      -0.27076799       0.11293815
H        1.25156334      -3.03765735      11.10649159       0.09930954       0.01766676       0.00937875       0.14170516      -0.08730561       0.04648164
H        2.15591880      -5.20383205       9.48361901       0.35679032       0.15217540       0.13010081       0.21004227      -0.41472670      -0.55594808
H        4.62908750      -4.96013584       8.15321371      -0.16973465       0.22279269      -0.15787337       0.45587245       0.42275405      -0.53996879
H        4.49465619      -2.39719885      11.51026789       0.07852213      -0.30030916      -0.01887092       0.25694656       0.34847572       0.58286309
C       18.94600144      16.09477848      14.23143499       0.03676091      -0.79607552       0.67820348      -0.74693751       1.33456743       1.48159671
N       17.71170927      16.54303102      13.57537095      -0.34223609       0.56276658      -0.29022212       0.06332409       0.04737824       0.80426717
C       16.80997298      15.65347394      13.07103693       0.20086828       0.10294667      -0.11906792      -0.78623718      -0.14214456      -1.10086381
C       15.78204957      16.39524113      12.56090780       0.04054615      -0.42308318       0.97198632      -1.48638701       0.33859813      -0.65983683
N       15.84402252      17.73109866      12.88373068       0.96086960       0.67055054      -0.53640695       3.54317904      -0.37265146       1.20609009
C       17.12460715      17.77056748      13.48639395      -0.26086864       0.26684244      -1.90135513      -1.46222878       2.33367467      -0.51600569
H       19.14475778      -2.54449139      15.20999593       0.19788196      -0.12539530       0.29277537      -0.72744024      -0.42590123      -0.47714490
H       19.80209444      -2.78977159      13.69254886      -0.32816902      -0.36297687      -0.33240943       1.24222970       0.32757753      -1.30756783
H       18.89934854      15.02738075      14.35896074       0.11663712      -0.25209537      -0.12076666      -0.04913193      -0.44070712       0.22616497
H       16.87368608      14.59243401      12.97005497       0.37518491       0.11203320      -0.13422339       0.68028015      -0.44096920       0.30592421
H       15.09969691      16.10485305      11.76040189       0.04681495       0.37905484       0.15830194      -0.05332214      -0.30185726       0.46838784
H       17.62038596      18.75636011      13.73282258      -0.07770021      -0.35266864      -0.10915519      -0.38433337      -1.53998590      -0.16461745
C        8.15616011      16.98074378      13.10449919       1.52430574      -0.10729561      -0.03521604       0.13752371       0.77922183       3.03437805
N        7.66331258      15.64212171      13.32715259       0.77877750      -0.46007728       0.34164665       0.56778425      -0.34566450      -0.31034803
C        7.06894985      15.12060812      14.46259709      -0.00267945       0.20442670       0.58138626      -0.15114750      -0.53627253      -0.76754105
C        6.67165070      13.83414825      14.22648551      -0.39831710       0.00840650      -1.43284970       0.73356676      -0.48214936      -1.97153187
N        7.07890242      13.62200811      12.82433115       0.15006704      -0.85017903      -1.19563419      -0.19554895      -1.54303503       1.19334674
C        7.77735283      14.68874705      12.38193496      -0.17868707       0.03733765      -0.58826217      -2.31578207      -1.08410537       1.58324969
H        7.79411320      17.76341757      13.81382258       0.06188181       0.04929744       0.27918312      -0.30212602      -1.07910728      -0.28560105
H        7.86570778      17.28155718      12.16421625      -0.07721506       0.04331314      -0.00658494      -0.14318642       0.59201682      -2.50939941
H        9.20442034      16.97853732      13.32894715       0.10833653       0.07386272      -0.01086614       0.97662652       0.00873158      -0.50490189
H        6.94568374      15.73119352      15.30900296      -0.18799780       0.14429980       0.07276397      -0.07649815       0.50848925       1.07037187
H        6.30363281      13.01866377      14.91976653      -0.01473585       0.19843301      -0.16260735       0.41642940       0.76412857      -1.09218287
H        8.23423367      14.67931283      11.43108727      -0.31168112       0.05433341       0.21834490       0.56722873       0.55080187      -0.70993841
C       21.05372845       8.77345860      18.38573997      -0.49309527      -0.20222718       0.40865363       0.28736699      -0.57937491       1.19230855
N       20.18924221       8.77816044      17.26670929      -0.13063178      -0.01894459       0.20651922       0.01561922       0.79255158      -0.80055237
C       19.89877127       9.82281170      16.39378254       0.57639547       0.44324312       0.67207413      -0.67749393      -0.60951775      -0.12628856
C       18.97840332       9.30320919      15.49413389       0.84348157      -0.28954550      -0.26249466       0.00443085       0.36660445       0.50817168
N       18.78633967       7.96031731      15.81330682       0.30270209       0.89891840       0.88409067      -0.95146823       0.69560015      -0.97555077
C       19.51824446       7.69015013      16.87564808      -0.99475578       0.42119678      -1.01093957      -0.79011559       1.54448271      -1.14859772
H       20.92437794       7.74200997      18.79606099      -0.27185976       0.20336666       0.16434374       0.89305705       0.93014920       0.12627383
H       20.77138122       9.51955901      19.11134987      -0.07976007      -0.09786454       0.24842458      -0.50003833       0.23854569       0.61183453
H       22.06564705       9.05690982      18.12800348       0.08801028      -0.02290648      -0.04562022       0.61247098      -0.50458491      -0.30632651
H       20.31273571      10.80539514      16.52557986       0.08593027      -0.04356889       0.11286537       0.18418774       0.09819883       0.06590702
H       18.35211582       9.87834562      14.78945363      -0.15733975       0.19872571      -0.19791843       0.37225550      -0.65158349       0.24769068
H       19.50984351       6.76487476      17.32842021       0.00271673      -0.18617402       0.21639536       0.15942657      -1.82395971       1.22428405
C        3.11414481       9.02280334       4.75686507       0.39116372      -1.26905563       1.14122651       0.10154320      -1.49206996      -1.11137307
N        3.07935506       8.50501830       6.10914249       1.24071972       0.33578254       1.17805688      -1.99380672      -0.07591048      -0.62298930
C        1.97343371       8.00645617       6.80521266       0.15404248      -0.01742772       0.16796927       0.87210798      -0.43498889       0.07027268
C        2.45117454       7.36074292       7.91700985      -0.11416156       0.35909179       0.18430859      -0.06849569       1.42244375      -0.81007171
N        3.77965238       7.62993565       7.95017834       0.95383105       0.79306045      -0.53287122       0.77176952       0.03290814      -1.03962922
C        4.15615755       8.25186746       6.80364080      -0.68109931      -1.11537543      -1.19730209       0.56921363      -0.75000590       2.51932049
H        3.56926844       8.21997434       4.11387933       0.22750983       0.16335355       0.01453777       0.04941025       0.68425488       0.51757324
H        3.74478421       9.88271787       4.77228617      -0.10161274       0.13707918      -0.18869155       0.47816014       0.82806712      -0.35115129
H        2.13979674       9.20318510       4.28884410       0.21644543      -0.26494718       0.20014021      -0.09631085       0.27149794       0.65871346
H        0.99064723       8.16041672       6.47823503      -0.13415085      -0.05427702       0.04725503      -1.24745810       0.17564791      -0.53295952
H        1.95312343       6.78864689       8.65144375      -0.24219125      -0.39069034      -0.00181936      -0.37192529      -0.56202424       0.73966062
H        5.16783352       8.48638563       6.59165141      -0.20218781      -0.06905203      -0.09178869       0.58482736       0.29266077      -0.36292487
C       13.02134272      -2.50403926      19.97579608       0.85321644       0.33694836      -0.76343613       0.08156937      -0.23709294       1.08120251