640
Lattice="19.152215 0.0 0.0 0.0 19.152215 0.0 0.0 0.0 19.152215" Properties=species:S:1:pos:R:3:momenta:R:3:forces:R:3 energy=-80128.0625 stress="-0.01882088929414749 0.00027751311426982284 -0.001360955648124218 0.00027751311426982284 -0.016113467514514923 0.00308637204580009 -0.001360955648124218 0.00308637204580009 -0.01755540631711483" pbc="T T T"
C       16.41958854      -7.09787681      15.57600053       0.05826150      -0.08072954      -0.18964434      -1.31436539       0.27968264       0.47594228
C       17.44848696      -6.11945609      15.95618392       0.78896462      -0.33993904       1.46279215       0.83395052       0.58504879       0.14892748
O       17.43060961      -4.88095251      15.38702766      -1.17014712      -0.47231369       0.61675317       1.35747755       0.43861061       2.29562759
O       18.38486757      -6.38457922      16.70556496       0.29889260       0.53153796       0.28011727      -0.40876466      -0.10556000       0.36709249
H       12.70814744     -12.47896870      28.32954810      -0.07179867      -0.15899416      -0.00356504       0.30724424      -0.00116411      -0.29864269
H       16.12548295      -7.76147738      16.42834321       0.22927515      -0.21812791      -0.03999127       0.34414062       0.47992977      -0.87694198
H       16.89757983      -7.64581799      14.78601954       0.04430988      -0.11107397      -0.07943252       0.01329562      -1.00338423      -0.62703240
H       15.54881379      -6.58120395      15.12826255       0.13028814      -0.00897917       0.21564600       0.25074092      -0.30068547       0.28788427
C       -0.20071172      17.58212788      16.27572852      -0.05670274       0.01183899       0.73346620      -1.63703096      -0.85942262      -0.76781368
C        0.94700420      18.49996156      16.42499144       0.51458188      -0.38671553       1.32934168       1.04846191       0.18481797       1.68860674
O        1.72671581      18.73530161      15.51623964       0.85788464      -0.96382533       0.10956479       0.39803410       0.37845451      -1.26407683
O        1.23383349      18.96045058      17.68283383      -1.53369257       0.29859783      -0.12267453      -1.02816570      -0.63135642      -0.80159628
H       34.46456979      23.76242592       7.16640999      -0.02063026       0.08127658       0.13596032      -0.47642559      -1.43717253      -0.13041806
H       -1.21948314      18.03092295      16.39358341      -0.02665395       0.15250771      -0.16990403       0.78773880       0.48158455      -0.41262251
H       -0.30621657      16.87214044      17.12657988      -0.27493317       0.43083566      -0.08576674       0.72924268      -0.16494173      -0.71255106
H       -0.13349626      17.13510872      15.21240341      -0.00475143       0.23784077       0.25554934      -0.11758207       0.28335795       1.90981388
C       10.78124767     -12.33055490       6.56836898      -0.72412892      -0.05011401       0.36029661      -1.61634934       0.34761310       1.00528574
C       11.30281474     -12.82146408       7.85782348      -0.47585274      -0.54510155       0.39387897       0.39728045      -0.26877776       1.35874605
O       10.49160357     -13.23778665       8.69247491      -0.20850662       0.34588472      -1.05595599       0.25059754      -0.32636872       0.41027248
O       12.63938916     -12.66822419       8.14718606      -1.82409935       0.33290330      -0.41930402      -1.50535309      -0.17086048      -1.16438603
H       10.00715507     -11.10911981       3.21893300       0.04485654      -0.28614187      -0.06270234      -0.11317686      -0.36079615      -0.12635913
H       10.02301347     -11.55677447       6.84485062      -0.08032149       0.36359007       0.05489704       0.39546329      -0.29128915      -0.38558093
H       10.25022670     -13.06469979       5.98498249      -0.03811773      -0.07781926       0.20539756      -0.33156759      -0.65906835       0.10903600
H       11.49643325     -11.93037526       5.95068964       0.29836280       0.10070193       0.46327523       2.04335785       1.29380274      -1.47166550
C       18.07064978      -5.72914375     -18.16310823       0.26816686       0.11339241       0.49933118       1.89049125       0.04975832      -1.21615922
C       19.25047044      -4.69335281     -18.14216216       0.50028063       1.02409285       0.50930700      -0.81743801      -1.04435587       0.63634300
O       20.26421940      -4.93175028     -17.48989371       0.17525302       0.78761282       0.59380630       0.37008095       0.03127711      -0.00725234
O       19.12251401      -3.55517366     -18.80074820      -0.89238602       0.04542988       0.13470516      -0.08959305       0.77638870      -0.80022222
H       14.36250378      -1.86155292     -13.76631957       0.20761703       0.11411466       0.00365212       0.45408651      -0.42599776      -0.45926005
H       18.57855453      -6.72109287     -18.38039994       0.07297110       0.01764827      -0.16585875      -0.84405208       0.92502445       0.28510305
H       17.38717499     -24.59700693     -18.98012376      -0.13697076      -0.06259639      -0.05896373      -0.10151971      -0.34306517       0.46770698
H       17.64134177     -24.90709456     -17.17067519      -0.26660213      -0.05378593       0.01132806      -0.41651154      -0.05819655       0.32561004
C       20.39512398      43.45926947       2.25403026      -0.44738215      -1.65943118       1.08825682       1.60968244      -0.17412651      -0.61169052
C       19.79210747      42.32284478       1.51641644      -0.89419774       0.48560008       0.81883675       1.46470881      -2.79280996      -1.00161755
O       20.36963213      41.21422415       1.30852105       0.05783639      -1.04591094       0.38488604      -0.40940139       1.60487771       0.54142451
O       18.55879945      42.49734550       1.09462280       1.32094656      -0.69636106       0.70787399      -0.91017985       0.23492694       0.43571493
H        2.15715083      19.40169473      17.61636474       0.01612677      -0.08305932       0.43675629       0.11334169       0.50183350       0.63261348
H       21.14946268      43.13896258       2.95092163      -0.14559487       0.13794486       0.06444324       0.72185409      -0.75339407       0.21192297
H       19.66175082      43.78083797       2.90827881      -0.01987429      -0.36107913      -0.27945763      -1.92696559       1.55475914       1.27354860
H       20.86453280      44.28372085       1.69256648      -0.20625027      -0.20914441       0.10719101      -0.54441595      -0.25662941      -0.25129563
C       18.45063655       5.30512931      12.56918584      -0.87963852       0.24424002       0.83157806      -0.03642860       0.47162688       2.33759356
C       18.13177667       5.12398814      11.16695423       0.39546092      -0.67015123      -0.15847487       0.13060457      -1.20544243      -2.54497719
O       17.05938033       5.31753488      10.57853071      -0.96385558      -0.41842457      -0.44032040      -0.39566788       0.64382005       0.44976684
O       19.17258962       4.52915621      10.52414618      -0.27411642      -1.30565472       0.27450287      -0.66811323       0.52306116      -0.72360843
H       21.34321351       3.43217374       8.35604736       0.25814778      -0.02824290       0.04228619      -0.79158628      -0.67982543       1.56238699
H       18.72491855       4.27077521      12.90171630       0.06547066       0.06201441      -0.17996972      -0.99297202       0.50819570       0.54344434
H       17.65745971       5.89688112      13.20937010      -0.02591394       0.09084059      -0.01768826       1.51444149      -1.46126580      -1.32391131
H       19.45545309       5.74396780      12.64165189       0.37116278       0.19022729      -0.19347093      -0.17647073       0.71037436       0.07384331
C       23.73038964     -11.08856171      -6.72109637       0.50083537      -0.57914823      -0.85139025      -0.82391942      -1.06589293      -0.25571609
C       23.09190846     -11.30456973      -8.06215805      -0.06048944       0.05798110       0.06279645       0.28459823      -2.07222843      -1.03381383
O       23.35300600     -12.35570162      -8.71268078      -1.07976709      -0.97318147       0.11183188       0.00633627       0.76151252       0.66399378
O       22.24973427     -10.40624398      -8.57630264       0.21754653      -0.67040899      -0.40746284       0.56824505       0.20574439       1.59896755
H        2.72167794     -10.01571150      -4.00781624      -0.19756452       0.08727087       0.19953668      -0.48834372       0.08491290       0.16826150
H       24.17408996     -10.13329761      -6.69458451       0.25591030      -0.30150899      -0.03195356       0.39216793       1.35041952       0.22186083
H       24.49586579     -11.84908291      -6.53359277       0.14952337       0.30588030       0.03964370      -0.04460071      -0.09267354      -0.23043266
H       22.99277047     -11.19964152      -5.91049842      -0.17598754       0.22023662       0.30606994       0.08472985       0.21997762      -0.20329313
C       14.56151912       7.03320862      12.23440457       0.89855570       0.38418958       0.55526900       0.97009254      -0.05264020      -0.83084345
C       13.89001823       7.82468759      11.14636798       1.45837489      -1.16704706      -0.24217773      -1.38269794      -3.00143147       0.23541248
O       13.01123281       7.22230903      10.41256647      -1.12546669       1.06694969       0.38510687       0.37029046       0.16443685       0.95330667
O       33.27362583       9.03035619      11.09779360       0.73485329       0.92653106      -1.41456704       0.61164469       2.92429876      -0.76882994
H        6.58158045      17.50365185       9.60700418       0.03894954      -0.04662503       0.29514042      -0.47421515       0.46569827      -0.17676312
H       15.24036114       6.26005608      11.81275337       0.02985717      -0.24524704      -0.23393307       0.18119445       0.68994802       0.32455221
H       13.86717594       6.49346277      12.79781669       0.11206141      -0.11523312      -0.09011070      -1.80948138      -1.29896641       0.68114161
H       14.93406747       7.70271811      12.99712562      -0.21096144       0.15584107       0.16134637       1.05765212       0.32977551      -0.05485530
C       17.01841112      -3.53379887     -14.62928666       0.27182020      -0.29948969      -0.14293070       0.74982816      -1.07908130       0.57110745
C       16.09249790      -2.63012475     -13.80568771       0.15176744      -0.39464551      -0.71116365       1.83718681      -0.17389759       1.36827230
O       14.97800353      -2.24713974     -14.46232616       0.32426598       0.14481521       0.79059157      -0.62244606      -0.14755365       0.52831888
O       16.39034194      16.90047281     -12.66035307      -0.33295878       0.53275707       0.24423600      -0.68956089      -0.36758611      -1.16173625
H       13.18280439      28.77925568       9.97920195       0.20962216       0.03164977       0.14765993       0.89337468       0.33482617       1.10324335
H       16.49067333      -4.30916850     -15.21508181      -0.23160968      -0.01556715       0.07415118      -0.05408808       0.22597748       0.32584509
H       17.92437750      -4.01954705     -14.09100523       0.04676641       0.02442760      -0.29494255      -1.88316607       0.79808527      -0.17984077
H       17.54503123      -2.92827592     -15.34174167       0.00074294      -0.15381811      -0.03790327       0.23733860       0.75926614      -0.80185652
C      -15.81248289      20.70305223      23.17139262       0.35738188      -0.77293054      -0.94143314       1.55711055      -2.93950462       0.06441259
C        3.88737191      21.66571394      24.16088027      -1.45439260       0.87035521      -0.77836292       1.48793483       0.92256558      -0.33378685
O        4.84011219      21.13422422      24.97544894      -0.03140825       0.44060895       0.71876954      -0.40062043      -0.59184110       0.01959926
O      -15.48738367      22.87223152      24.12196044       0.42205370      -0.84680674       0.34120660      -0.31159636       0.35994220       0.07523996
H       17.07412760       7.20176007      17.25921592      -0.12433867       0.31716119      -0.05487715      -1.22533333       0.52300990       0.41209725
H      -16.83470313      20.47024126      23.31676391       0.23255019      -0.02540295       0.12343547      -1.66539598       0.26059118      -0.04122950
H      -15.35533354      19.67617070      23.33173574      -0.09332504       0.14870724       0.08134531      -0.15733229       0.96481740       0.26775366
H      -15.57765396      20.83951347      22.11221900      -0.03355812       0.17604271      -0.12508881      -0.21326987       0.94229943      -0.03188948
C       27.42406413      32.37663495      11.55662745      -0.06076159      -0.46412049       0.38233152      -1.36833072       1.13927114      -0.11146241
C       27.06622602      31.00086364      10.92337028      -0.64617696      -0.23128351       0.53939599      -0.64657313       1.35060787      -0.12910670
O       26.33731781      30.81935277       9.91756636       0.54809749      -0.48532781       1.30009079       1.63630426       0.15543270       1.66770387
O       27.63034735      30.00074510      11.60079403      -0.46463452      -0.21353893      -0.14913968       0.02760190      -1.34113884      -0.55480802
H       28.24684472      11.10569554      12.35919726      -0.27118482       0.37134835       0.05211909      -0.30311060       0.14794458       0.10563056
H       26.77496390      33.21599219      11.12779090       0.18931827      -0.27509423       0.05490269       1.02208638      -1.07749867       0.10469159
H       28.50680900      32.56457874      11.40230725      -0.12158424      -0.07310714      -0.07664734      -0.45201802       0.17798692       0.13627505
H       27.20495460      32.43162873      12.67482967      -0.16463010       0.07331762       0.12167654       0.37053293      -0.49863437      -1.27280295
C        5.05570421       7.99568343      17.20599932       0.53386622       0.22531938      -0.88515892      -0.37978196       0.80507976      -0.91109067
C        3.97525243       8.99102536      16.68010493      -0.51031689      -0.22523858       0.75037491       0.23453701      -1.10338974      -0.05068237
O        3.48112418       8.52582949      -3.62262076       0.90461594      -0.13138222       0.07101708       0.29079214       0.31236798       0.09923357
O        3.58777898      10.02909534      -1.91105363       0.12063624      -1.56355088       1.00824480       0.98371220      -0.71578521      -0.52032650
H        0.60809248       9.35231496      22.78044258       0.00365439       0.08307180       0.26908792       0.06815167      -0.11008066       0.11323752
H        4.59067673       7.04658309      17.48759644       0.15810873       0.14562252       0.05029805      -0.38304549       0.04789866       0.44188720
H        5.47804843       8.51999581      18.07898577      -0.21236976       0.30610182       0.15565123       0.55358052      -0.68698990      -0.36061564
H        5.71354845       7.63850651      16.34326163      -0.03637062      -0.00314095      -0.07036964      -0.27273229       1.05932975       1.21590304
C       16.17352282      21.98959955       3.35283816       0.93612961      -0.41310932      -1.65812812       1.46538401       0.58278584       0.08971685
C       15.33091569      20.78740843       3.70171317       0.50718817      -0.16127948       0.34170141      -1.01910996      -1.51676106       2.58566403
O       15.98077431      19.59762861       3.85194553       0.31576298      -0.93101009       0.13320270      -1.38299036       1.43487370      -0.92826867
O       14.11675998      20.82745428       4.06407511      -0.23602256       0.18760873       0.15764879       1.42116320       0.53730458      -1.31158221
H        5.36353344      21.84194326      25.52226246       0.06238805       0.19649415       0.04921855      -0.41928601       0.35648155      -0.35583147
H       16.42275731      21.93726305       2.27753806       0.23333248      -0.26263916       0.15674059      -0.15315399       0.31404406       0.04831670
H       17.19609559      22.01986809       3.86661119       0.19423191      -0.32974796      -0.03813590      -1.23857546      -0.46014446      -0.44952157
H       15.72351570      22.96854022       3.60954612       0.36301104       0.00177288      -0.05749459      -0.26589918      -0.71856058      -0.40338752
C       25.31377600      -9.12991601      14.32132900      -0.14864883       1.14735871      -0.34200588       1.12859666       2.04581332      -2.57307243
C       24.90945050      -7.69156533      13.74192296       0.39295866      -0.17346085       0.99856849      -0.03994703      -0.89038545      -0.06021273
O       25.58172938      12.47629062      14.17364018       0.40136604       1.12669024       1.41129595      -0.89822733      -0.94179326      -0.59344488
O       23.95141435      -7.72440086      12.87206818       0.09824275      -0.69160237      -0.15665502       0.71495509       0.69676018       0.66065991
H       44.50671549      -5.08274125      14.04914678       0.26555470       0.19882643       0.04044414       0.05531259       0.47133449       0.57687438
H       24.52820720       9.39302205      14.58535998      -0.38943272       0.05148497       0.02934679      -1.61904871      -0.82102138       0.26536852
H       25.91328338      -8.88342265      15.13257089      -0.13387961       0.15315209       0.17078741       1.30383396       0.09767860       1.73278713
H       25.95131590      -9.68195193      13.57437246      -0.23776962       0.03448448       0.28178121      -0.50161016       0.67958999       0.43140694
C        1.46529156      15.30599773      -8.01597041      -0.52827651       1.43528939       0.34941076       0.70329058      -1.24392271      -2.02335525
C        0.41695027      16.14586998      -8.80561616       0.19581771       0.12109411      -0.16210422      -0.09854981       2.56850243       0.48433325
O        0.58462396      17.32839038       9.91782759       0.80831948       0.04747312       0.12567720       0.52383626      -2.34285617       0.77629161
O       -0.83887313      15.64717171      -8.89760963      -0.24238923      -0.70126537      -0.47356309       0.93122298      -0.41327173       0.38106936
H       -0.84120669      14.76989643      -8.39112603      -0.19926951       0.10177884       0.30351851      -0.67235804      -0.39304715       0.18555719
H        2.01722100      14.62767007      -8.83755826      -0.04059512      -0.13307008      -0.06475037      -0.70035446       1.80545783       1.33810341
H        1.01070030      14.44428628      11.69484582       0.16665151       0.26236471       0.06410455       0.04303649       1.17288136       0.23243910
H        2.23527782      15.93388984      -7.45809605      -0.15844342      -0.03403609      -0.01550565      -1.20549786      -0.82348657      -0.71210831
C       16.01613198      12.24504285      11.34793672      -0.00240235       0.10701981      -0.27504723       1.72355437      -1.47492826       1.01541245
C       16.78898541      13.32235523      12.16237125      -0.06128155      -0.30470323       0.17325977       1.06540978       0.82927012      -1.92997384
O       16.17673988      14.08109267      12.98244839      -1.11407287       0.74431031      -0.36839879      -0.30532229      -0.44671023       0.04252863
O       18.02810949      13.47602336      11.78179391      -0.32098497       0.95829955       0.97961031      -0.89122319      -0.19598970       0.52837551
H       -2.17579557      14.41841298      -4.58677740      -0.25125615      -0.17988804       0.04157536      -1.45544064      -0.58909589      -2.07391858
H       16.33184853      12.05789209      10.30970017      -0.24605768      -0.43884121      -0.21714087       0.16863863       0.67653245       0.06533755
H       14.96578930      12.28915484      11.41045294       0.24336985       0.43697260      -0.65813177      -1.45416832       0.50962293       0.07347858
H       16.27667594      11.25926810      11.82223572       0.24020223       0.19449845       0.02645283      -0.18357734       0.44847849      -0.16330664
C        2.57947321      -2.92249668       7.46857739       0.06943245       0.47366201       0.29608403       2.13801432      -0.40385199      -3.66558504
N        3.50102064      -1.93971673       8.07734035      -0.06010220       0.33917733       0.26472637      -0.24301767      -0.65017641      -0.32775474
C        3.87776597      -0.66940402       7.66505939       0.50480064       0.13755843      -0.30687192      -0.56024700       0.49759948      -1.54011130
C        5.01270982      -0.33311465       8.38673004      -1.39513095      -1.41361654       0.83119839      -1.53730917      -0.76968926      -0.88502485
N        5.37030507      -1.42951943       9.12934712      -0.81915465      -0.37122587      -0.52551835      -0.20338410      -0.75948548       0.54207969
C        4.43336344      -2.39997568       8.93181155      -1.25868661       0.38114852      -0.16924655       1.08084440      -0.69700235       0.48186091
H        3.07270600      -3.91860621       7.54570340      -0.29352184       0.17163307      -0.07686989      -0.74624634       0.45696965       0.94820917
H        2.72197266      -2.87655877       6.29146073      -0.09212918      -0.06162614      -0.06712443      -0.94706523       0.68549365       2.22202253
H        1.57804862      -2.84679048       7.83378520       0.38995758      -0.19934498      -0.24050707      -0.64326847       0.04672754       0.21028107
H        3.51309564      -0.26252710       6.66965927       0.06601101       0.28445902      -0.09895743       0.32230142      -0.39370629       1.60962260
H        5.48201540       0.62486476       8.31853412       0.06138938       0.05187199      -0.15823051       0.59227836       0.04989636       0.36360836
H        4.47389820      -3.52753728       9.18027088       0.37165927       0.05081505       0.00282115       0.08471208       2.07149887      -0.03692345
C       17.14252129      17.41960798      13.00947338      -0.10381624       1.13981864       0.35305046      -0.06466986       0.16750664       0.73966408
N       17.25109961      18.86333514      12.79276313      -0.66144111       0.34399248      -0.19636404       0.05459628       1.03721881      -0.50146502
C       16.49792663      19.57520313      11.84521189      -0.22011099       0.09986346      -0.08229219       0.40838215      -0.44894210       0.13843498
C       16.74171159      20.91566551      12.06370560      -0.28917655       0.25900440      -0.40470859       1.03147292      -1.70294154       1.30916584
N       17.63642811      21.07383344      13.12867284      -0.41363920       0.42801924       0.59393551      -0.42779559      -0.67336005      -0.86857104
C       17.91812170      19.83181010      13.51594960       0.95582555       1.00711644      -0.27693145      -0.40388337      -0.14673448       0.65183228
H       16.75039776      -1.90865454      14.03736764       0.07018480       0.22643025       0.22894080      -0.37896025      -0.12041920      -0.82899439
H       18.09457337      -2.23812433      13.01374558      -0.09715704      -0.04586241       0.29745196       0.82310140      -0.00161980      -0.25356942
H       16.57780814      16.96359587      12.18084753       0.05447194       0.39019214      -0.14826323      -0.14761981       0.19490051       0.62555337
H       15.91475600      18.98723400      11.14258187       0.03142503       0.02609907      -0.14603415       0.05231073       0.51968706       0.12550385
H       16.29010332      21.76218190      11.68818659       0.00325882       0.23110510       0.19613184      -0.97138727       1.66637850      -1.03190553
H       18.51515209      19.66535861      14.40372978      -0.16449594       0.17804674      -0.14818751       0.22300664      -0.57362586      -0.38354319
C        8.27574709      11.54539515      17.18082815      -0.67161336      -0.07321828      -1.00793690       1.75814533       0.40502578       0.66602796
N        9.12370771      10.45411234      17.70062777       0.48813847      -0.73142639      -1.27016756      -0.98740268      -2.44018459       0.92294687
C       10.27926234      10.59799210      18.41513639       0.30786044      -0.00048341      -0.33595941       0.14991552      -1.69991601      -0.35503137
C       10.67118070       9.33615359      18.88227969      -0.87026473      -1.37567505       0.55025009      -1.23345995       0.84346688       0.24194004
N        9.70694303       8.39402784      18.49969910       0.40618687       0.48265368       0.93757196       0.11994469       1.32653391      -0.31981248
C        8.79264119       9.07459759      17.77102782      -0.41648703      -0.73295660       0.47389880       0.48719782       0.84048694      -0.14231545
H        8.34116634      12.46591750      17.82991569       0.16174880      -0.15734289       0.23904521       0.16961312      -0.87500590      -0.62470096
H        7.28828767      11.18235986      17.20866690       0.02877172      -0.61535113       0.07869704      -1.55800080      -0.30475938      -0.17653465
H        8.62465035      11.73182002      16.16779172      -0.19045729       0.05227693      -0.11243486      -0.30309010       0.44104838      -0.20185031
H       10.82528333      11.44303340      18.13966622      -0.08741018       0.06068096       0.04451138       1.28401589       1.44125724       0.21366198
H       11.41089133       9.14358265      19.66372767       0.25890782       0.45855146      -0.23673935      -0.16878152      -0.11153212      -0.44220608
H        7.99853305       8.60386285      17.16567745      -0.03392226       0.16546080       0.13236288       0.52585316       0.39258817       0.46805260
C       20.30717196      10.65929032      18.58857411      -0.35469376       0.88502883      -0.07000413       0.55163515       0.76173782       1.02630877
N       19.62862731       9.34156864      18.60216157      -1.49281367       0.07328174       0.42774980       0.21044433       1.31762993       0.13422100
C       20.27355773       8.18113120      18.95487475       0.16087849      -0.56160816      -0.14954110      -0.26959056      -0.44948560      -0.67451632
C       19.38296374       7.17354738      18.51815492      -0.48905929       1.97196538       0.15466435       1.09216595       2.89357591       0.57159710
N       18.23811246       7.70854628      17.99890791      -0.49995267      -0.37321283      -0.76682969       0.79129463       0.69784182       0.01893651
C       18.40376877       9.04465105      18.10523487       1.16101274       0.66849142      -0.72072135      -0.00383580      -1.04707825      -0.40839309
H       21.39173385      10.53434245      18.35300156       0.01829171       0.02031910       0.12025056      -1.09574616      -0.22929174      -0.49262834
H       20.43852811      11.05678801      19.64019181       0.27572149      -0.03206926      -0.36244337      -0.97550237      -0.17837426      -0.78655285
H       19.80311571      11.37889356      17.89445988      -0.31746816       0.32562215       0.08803191       0.36827353      -0.57686096       0.68792373
H       21.27971209       8.28163084      19.44184008       0.24030886      -0.22117699       0.00762916      -1.14488351      -0.70100534      -0.55934483
H       19.46476142       6.19885169      18.75785870       0.08196388      -0.07627925      -0.19461852       0.20075607      -3.30189681       0.46184808
H       17.63364900       9.68529259      17.75559754      -0.00276877      -0.15342892      -0.05986884      -0.16950446       1.04085255      -0.01554919
C        3.30000981       7.19515234       4.92615747      -0.25590354      -0.09908731       0.56710333      -1.87791836      -0.46173400       0.98889828
N        2.66539663       7.65102901       6.17175941      -0.30310642      -1.15754824      -0.51355907       0.33763337      -0.79127157       1.30076563
C        1.68245921       8.59199606       6.32643541       1.32574007       0.18224543      -0.02512212      -0.44956318      -0.04798102       0.21281987
C        1.41176396       8.67692038       7.68003450       0.71949072      -0.15294564      -0.79380597      -1.54604888       1.37382400       0.29922348
N        2.17714705       7.79308854       8.40010591       0.09720318       1.06632481      -0.15626833       0.99719036      -0.54775357      -2.31115270
C        2.95035779       7.17538982       7.42717865       0.02845795       0.06156655      -0.25981882      -2.24617791       2.11210012       0.67532229
H        2.75726164       7.56681864       4.08744205      -0.06035167      -0.02582894      -0.09087020      -0.75450671       0.22542915      -0.66492540
H        3.33772437       6.11671198       4.91157233       0.01643185       0.21250682      -0.03201942       0.00672606      -0.48530316       0.01413691
H        4.24228588       7.60466077       4.87409250       0.37753118      -0.06439709       0.12595690       2.58150649       0.87544394      -0.07147060
H        1.16382435       8.95462527       5.46360796      -0.21134277       0.33638813       0.06690236      -0.13677032       0.07810375       0.16674015
H        0.66622867       9.39873027       8.15446140      -0.09830226      -0.02441512       0.32497317       1.15388441      -1.12845433      -0.63939440
H        3.64548468       6.45109813       7.65517434       0.14400398      -0.19341318      -0.19745631       1.54889762      -1.61209011       0.27361974
C       11.98813108       2.36963560      16.54024017       0.54938105      -0.16753761      -0.37376760      -0.21930358       2.21099472      -2.17791367
N       12.47193512       2.42849662      17.86631299       1.54916894       0.36892847      -0.56467870       0.27167481       0.49787074       1.50039327