640
Lattice="19.152215 0.0 0.0 0.0 19.152215 0.0 0.0 0.0 19.152215" Properties=species:S:1:pos:R:3:momenta:R:3:forces:R:3 energy=-80128.8203125 stress="-0.022813376039266586 -0.0017975078662857413 -0.0017437409842386842 -0.0017975078662857413 -0.0194373968988657 -0.0028856582939624786 -0.0017437409842386842 -0.0028856582939624786 -0.01869240030646324" pbc="T T T"
C       14.12922042      -3.16612998      12.88224189       0.81440809      -1.14203087      -0.26048921       1.30859649      -0.82101786      -1.36194611
C       13.99470932      -4.54607794      13.41921905      -0.10525212      -0.00483144      -0.41089358      -1.64711690      -1.50814986       0.20067319
O       14.19311470      -5.63711309      12.58685037       1.06340675      -0.79470051      -1.07015048       0.90706468       1.59573090      -1.66934741
O       13.53129009      -4.85766326      14.51474958       0.47670615      -0.01754803       1.27313209       0.35025570       0.59382749       0.74836886
H       15.23714564     -13.58291734      31.25513762      -0.32269436      -0.11036421       0.02250840       0.53585851      -0.41567379      -0.26721373
H       15.13859880      -3.14721004      12.44584852      -0.18191381      -0.01855339       0.26839444       0.00689875       0.27418172      -0.29215539
H       14.05944841      -2.33024366      13.52988026       0.10800457       0.05201026       0.02318779      -0.18656187       0.38378626       1.44668293
H       13.42790011      -3.01352461      12.07561616       0.02241064      -0.05317429      -0.28086566      -0.42266130      -0.00500044      -0.67785764
C        0.60652255      18.08045558      15.19714599       0.78135397      -1.05680403      -0.92292166       0.47317868       0.49031371       0.46256968
C        1.74949509      18.67615641      16.02234424       0.53045677      -0.16484709       0.52851690       0.04616141       0.32080543      -0.63130617
O        2.39139564      19.69367660      15.67271029      -0.66710365      -0.11813231      -0.80916696      -0.85630947      -1.33481121       0.85342044
O        1.99943000      17.96868499      17.17688120      -0.42602979       1.21800654       0.13330563      -1.54177916       0.09564567      -2.40813518
H       36.06184334      24.66471653       6.67760285      -0.15929599      -0.13164989       0.03249461       0.21331480       0.62252194       0.13828337
H        0.62715441      18.41115076      14.15668915      -0.17495416       0.31610373      -0.13119573       0.39373070      -0.05638029       0.00359481
H       -0.31987832      18.52178299      15.59882987       0.03810457      -0.34185911       0.08837399      -0.21962601      -0.54614937       0.14556921
H        0.67805104      16.98742194      15.24685894       0.19924879      -0.19401373      -0.17365173      -0.53201216      -0.02918091       0.04242668
C       13.71385878     -15.23918935       9.08146964       0.14968731      -0.92244704       0.79564002      -0.48733747       1.10831738       2.41897583
C       14.23313167     -13.96816638       9.70381492      -0.73491725       1.01061183      -0.35703704      -0.30836892       0.77352381      -0.99237859
O       13.83865307     -12.79423724       9.21792897      -0.58691113       0.01361344      -0.70628969      -0.18525022      -1.86734319       0.29213464
O       15.05311524     -14.10887215      10.61619615      -0.83356265       1.59340741      -0.13430188       0.61461568       0.26943105       1.02639890
H       11.10679645     -12.04931306       4.94023164      -0.15970451      -0.04329188      -0.13200016       0.53899288       1.70142770      -0.42932075
H       13.08947273     -15.70555399       9.86809492       0.08891396      -0.05849579       0.09137752      -0.14285104      -0.00228225      -0.47780064
H       14.54875140     -15.85481230       8.96570627       0.22399689       0.25379725      -0.15164174       1.36665070      -1.30007076      -0.61761796
H       13.21420180     -15.03004115       8.20044313       0.22892723      -0.00872241       0.16749405      -1.31035566       0.11790620      -1.93919241
C       16.00423993      -6.82237894     -14.92702094      -0.51524365      -0.22477916       0.91821867       0.30505627      -0.99900103      -0.72872448
C       15.56873159      -5.45444405     -14.55390094      -0.58656282       0.30541830      -0.75129658      -1.31863368       0.01377070       1.48313618
O       16.10597893      -4.77850479     -13.68438450      -0.78504191      -0.82901513      -0.16098798       0.53571093       0.21278226      -0.27943781
O       14.34582924      -5.04442168     -15.03799423       1.24395022       1.66088395       0.25042118       0.92898858       0.14216071      -1.01403785
H        9.59443056       0.98148986      -9.32536082       0.41375181       0.19205887      -0.23890507      -0.01857376       0.17536819      -0.64292097
H       15.13110525      -7.34182592     -15.46697529       0.06930609       0.15233334      -0.15134877       1.72088563       0.62807536       0.13345827
H       16.26939427     -26.61701555     -14.06294718      -0.08819915       0.03271665      -0.11063290      -0.58030027       0.43684268       0.26314986
H       17.03015603     -25.88673270     -15.38541815      -0.33808258       0.07033747       0.07577662      -1.24524593      -0.27400663      -0.39991379
C       13.99521405      42.87133118       0.57023271       0.12278984      -0.68985131       1.08441909       1.24528575      -2.70729828      -1.46237338
C       15.31053159      42.02709448       0.82257368       0.02768550      -0.35499814       1.22564815      -0.07962394       2.92602348      -0.94759679
O       15.31252582      40.80972265       0.90564296      -0.88309311      -0.35071723       0.04144015       0.29954410      -0.97957516       0.20850340
O       16.39066032      42.85734729       0.78054513       0.11711851      -0.53087145      -0.48135934      -0.46299469      -1.23250246       0.17634910
H        2.74053730      18.47599205      17.55588697      -0.15146836      -0.14331830      -0.23706800       1.51897097       0.64231777       1.74521530
H       14.17727091      43.90577309       0.76069683       0.08365125      -0.04192884       0.13257911      -0.13171929       0.80432206      -0.17857939
H       13.28155076      42.40673461       1.19854252      -0.12682470       0.36071280      -0.20777733      -1.11496592      -0.13587517       1.11150682
H       13.64903186      42.53950329      -0.47179628       0.00972686       0.06522412      -0.11722636       0.59351504       1.01765847       1.15189350
C       20.57839213       0.39205009      11.86525604       1.15258678       0.23840428      -0.27588826       0.36207497      -0.16302627       0.99721110
C       20.29169320      -0.66070874      10.85153449      -0.07094107      -0.36095706      -0.18517780      -1.03430927       0.96411586       0.49667671
O       19.27216177      -0.68719899      10.17258919       0.63644884      -0.13129008       0.16271505      -0.53583521       0.40680090      -0.39146644
O       21.14547415      -1.62232738      10.76422667       0.75097499       1.20503467       0.17859041       1.88339269      -2.20606613      -0.58098781
H       21.07848145       2.37885601       6.70540670       0.02812297      -0.19441105       0.02033313      -0.09256047      -0.71679586       0.04770595
H       21.55083193       0.25382601      12.39367211       0.13865173      -0.02880378       0.01224123      -0.92900395       0.01421402      -0.20684528
H       19.71531375       0.45369028      12.54541799       0.07469365       0.23614609       0.29178231       0.24945001      -0.03531521       0.14411022
H       20.61194427       1.34347987      11.39306573       0.06806695      -0.28905488      -0.36435922       0.07833438       1.07737792      -0.63727486
C       22.12723217     -11.59651018      -9.40708229      -1.74431257       0.33027762       0.26785965      -1.73313916       1.88260770      -2.08983850
C       21.07917793     -11.44635241     -10.61592836       0.16553601      -0.88958029      -0.56501173       1.28804362      -1.38556647       1.55156183
O       20.33891447     -10.46398203     -10.71971204       1.73254766      -1.15970236      -1.68538628      -0.47735122       1.98157954       0.53375864
O       20.98653860     -12.43046437     -11.43579782       0.38763251       0.49905639       0.81358856       0.07604762      -0.37590629      -0.82816386
H        1.88940123      -9.12602605      -3.07732971      -0.16995934       0.26950355       0.15374036      -0.12799880       0.59542334      -0.17606550
H       21.51677677     -11.82500093      -8.53296061       0.06755438      -0.22488579       0.28601304       0.51582360       0.33032802       0.04823080
H       22.56832315     -10.57263706      -9.40692103      -0.31146480      -0.15344334       0.09074156      -0.06443492      -0.60530233       0.71024960
H       22.86998626     -12.34272619      -9.58422269      -0.02779306      -0.16098430      -0.24707217       0.46269417      -0.70231849      -0.24886210
C       17.21597539       5.62775807      14.90799797       1.09686206      -0.94763041       0.08876472      -1.92070580      -0.67137551      -0.43241692
C       16.82006111       5.35883694      13.36276325      -0.57847984      -0.29110244       0.49409445      -0.42217958       0.60578936       1.06311393
O       15.48559156       5.68581919      13.07560090      -0.38244747       0.51438863       0.92033304       1.71879530      -0.27810287       1.14561236
O       36.79442971       4.93745367      12.55423716       0.79845653      -0.49151679      -0.46580612      -0.50727832       0.18420486       0.23672676
H        3.34404289      17.25614620       8.37972020      -0.29378039      -0.29317811       0.27117899      -0.21178448       0.62287956      -0.21889973
H       17.98534450       4.90015517      15.24521710      -0.02902040      -0.07853346       0.05426456      -0.36642763       0.31728178      -0.46309131
H       16.26834279       5.46703629      15.54784161      -0.20136838       0.11413651      -0.01105101       1.37443447       0.33100629      -0.84980965
H       17.58768444       6.65905749      15.06621685       0.15186241      -0.29447258      -0.25352081      -0.17565359      -0.31312284      -0.19491073
C        8.75432883       3.16424522     -11.71962634       0.43163328      -0.30421816      -0.02281428       1.19578981       0.72594959       2.26580095
C        9.45247289       1.95396401     -11.09424222      -0.74786982       0.44592069       0.07873876      -0.16488844      -0.18331802      -0.53778094
O        9.28179208       1.87744685      -9.74763648       1.45904497       1.21675097       0.65949715      -0.14720255      -0.05663180      -0.07981169
O       10.07866276      20.29073281     -11.77104317       0.01418750       0.38375523       1.29829493      -0.09558949       0.11986051       0.15257454
H       14.02302990      26.33208404       9.96709850      -0.39156104      -0.12770141       0.23561004       0.23369825       0.39447606      -0.60179836
H        8.26289491       3.13509398     -12.62910530      -0.02379614      -0.09583560       0.01006721      -1.43307149      -1.44088316      -1.91362715
H        9.45170132       3.94002826     -12.02580252      -0.19003745      -0.00710265      -0.03381045       1.04163885       0.15735382       0.45755053
H        8.11004728       3.64717481     -10.99914118      -0.09233764       0.09504038      -0.07166808      -0.39272249       0.09748577       0.44076490
C      -14.65042573      25.74124004      23.80670065      -0.36883421      -0.04155189      -0.02550212       1.40825188       0.15365684      -0.93093336
C        5.68993429      25.63737027      24.79088324      -0.28027072       0.57739843      -1.90007635      -0.31553721      -0.44974357      -1.74114966
O        5.50838035      26.36503079      25.86165026       0.76231171       0.83683804       1.73533082      -0.49194765       0.75480193       1.44603288
O      -12.45340351      24.96734167      24.54953432      -0.00013100       0.47075128       0.34269031       0.10871661      -0.15263045       0.12453926
H       16.77475294      10.83586685      15.56845383      -0.22989720       0.02801025       0.39228541       0.27284729       0.00524461       0.38618922
H      -15.38306008      26.48601445      24.11563128      -0.24657935      -0.11963766      -0.21717122       0.04620901       0.23944263      -0.11610302
H      -15.15955033      24.77680888      23.79045803       0.39433044       0.04899622       0.12380334      -0.06233307      -0.36502549      -0.19700450
H      -14.20378508      25.93668894      22.75426384      -0.10699462      -0.15992700       0.07634621      -0.91493124      -0.22263983       1.52250767
C       24.23684784      27.72527021      12.32449540      -0.09946537       0.30400822      -0.04289154       0.07793263      -0.02650890       1.55815518
C       25.55107401      28.40268210      12.13553844       0.05582441      -0.01390391      -0.14053359      -0.53970516      -0.18014252      -0.73939663
O       25.65739148      29.18621222      11.19932003       0.42336321       0.57994079       0.32121782       0.54488075       0.91810936      -0.40956706
O       26.56378270      28.14589650      12.97811293       0.59151777      -0.28755083      -0.80706894      -0.95358002      -0.54293483       0.36414123
H       27.29167931       9.65018431      12.73771652      -0.08864136      -0.02970827       0.24353853       0.69532073       0.42070830      -0.26553112
H       23.48047758      28.47385996      12.15966166       0.02906742      -0.26511340       0.07825041      -0.52683246       0.37581462      -0.65217400
H       24.07099232      27.46035438      13.36167221      -0.09615777      -0.00857754       0.15033409       0.25418898      -0.45736951       0.48921853
H       24.05096107      26.82902697      11.74346603       0.19077686      -0.14373402      -0.18398637       0.18012390      -0.23772672      -0.40407917
C        1.74402323       8.75289762      19.00781039      -0.54489838       0.22826198      -0.10369187      -0.15613380       0.72939956      -0.20353949
C        1.31807626       8.89918733      17.59518343       0.78013951       0.46959654      -0.87163831       1.86329675       2.34163809      -0.25471377
O        1.92613536      10.09811973      -2.07737649      -0.26797765       0.95565115      -0.36838643      -0.87572372      -1.80299222       0.52836430
O        0.64245327       8.15777837      -2.24054302       0.35119667       0.01482160      -1.27751939      -0.45231241      -0.58549535      -0.25656497
H        1.02043961      12.39182795      23.15835370       0.05227612      -0.10329967       0.08225105      -1.05232191       0.44561005      -0.60494184
H        1.00774187       9.24112127      19.62111673      -0.07176262       0.04135937      -0.07424848      -0.45917499       0.80108070       0.42630970
H        2.72335040       9.19469447      19.20219994      -0.01370852      -0.15505089       0.13286557      -0.03794435       0.14447847      -0.05038546
H        1.73708861       7.76300061      19.34686093      -0.26254187       0.00236609      -0.07434935       0.19591409      -1.83791530       0.16145100
C       17.35289593      18.67091065       6.28181284      -0.79662215      -0.73066123       0.94919799       0.55312526      -2.21625519       1.67333293
C       16.22446663      19.58153307       6.06711725       0.33614546       0.74525225       0.04600065      -0.60507435       2.29440355       2.30995297
O       15.63273238      19.71567813       4.88125039      -0.08336450       0.10781088      -0.44664470      -0.14579195      -0.93555474      -0.54839826
O       15.86279021      20.29869261       7.05714372       0.61181643       0.12721677      -0.26142594       0.13460624      -0.88747060      -2.01590252
H        6.25513188      26.24673143      26.56410659      -0.23112708       0.09086280      -0.04106979       0.28218621      -0.04565924      -0.11081766
H       17.39684733      17.81785544       5.56679054       0.20016701      -0.18576092      -0.15364089      -0.08644190       0.42779899       0.43703133
H       17.21287486      18.27773976       7.38346833       0.49468703      -0.03914982      -0.02629534       0.35420102       0.42787829      -2.09628677
H       18.33386008      19.17195524       6.28469604       0.29551568      -0.16366425      -0.11300382      -0.18127152       0.25300106      -0.19035792
C       25.06004032      -7.05398991      14.41680101       0.19996117       0.06614744      -1.82252483       0.02733535      -1.56568646       0.42921367
C       25.83811097      -6.61668533      15.62986502       0.47649993       0.31179608      -0.45103881      -0.49479359       0.93290824      -1.92735660
O       26.08364284      11.55420124      16.45750076      -0.34872640       0.46102936      -0.29281977       0.85726571       0.10346961       1.65526605
O       26.20007613      -5.42209555      15.63193454      -0.25621270       1.43025385      -0.64767939       0.28211841      -0.64007401       1.22562790
H       45.80751463      -7.26334918      17.36438587       0.22806283       0.27498770      -0.02176438      -0.43215704       0.09807998      -0.21320786
H       24.22946121      11.38145311      14.59065990      -0.20385247      -0.12855374      -0.17145459       0.19570242       0.73459387       0.03939684
H       25.74439470      -7.57502926      13.76187494      -0.17260348      -0.39236907      -0.21671115       0.56122458      -0.65184712      -0.32703424
H       24.84636119      -6.20344058      13.83390361      -0.21740777      -0.32103311      -0.23763828      -0.96481597       1.27509725      -0.54259735
C       -3.72685255      15.65925218     -10.92340287       0.73490358       0.72059922      -0.09205297      -0.86202604       0.91323233       1.31372952
C       -3.21483558      15.15486290      -9.51119961       0.16321291      -0.92517181       0.72014048       0.47391525      -0.13680279       0.63483322
O       -3.69768267      14.05194318      10.09038573      -1.26260119       0.19205160      -0.67161078      -0.03438729       0.52750909      -0.16667926
O       -2.31984036      15.86709261      -8.85734870      -1.08235419       0.29873130       1.43619366      -1.41535997      -0.52401334      -1.44499373
H       -1.64502488      15.66291024      -7.43530760       0.00700861      -0.02771195       0.19020059      -0.24235845      -0.18053649      -0.47517854
H       -3.70859486      14.95658825     -11.75306457       0.30195881      -0.08135499      -0.22505615       0.55904806      -0.56304389       0.13813931
H       -3.16258961      16.57074342       7.93945119      -0.13840307       0.17460193      -0.14537704      -0.49723816      -0.32908362       0.15898316
H       -4.84358391      15.88774204     -10.86690944      -0.01064995      -0.10566355       0.16588196       1.19343615       0.09896007       0.23208319
C       19.24407882      13.95943786      11.13951207      -1.19945265      -0.28114564       1.40314022       0.18333645      -1.71600544      -1.45611656
C       19.18631079      14.80155191      12.34004945      -0.12185643      -0.72405755       0.09108600      -2.55929756       1.03549254       0.48143047
O       18.05273051      15.57253705      12.56489813       0.32245308      -0.45903853       0.22028983       0.54172170      -0.37919289      -0.65141654
O       19.97845711      14.80323504      13.23574340       0.73463639      -0.35295125      -0.79864023       2.74519634      -0.25830540       1.76105535
H       -4.63307796      13.81973218      -7.51419487       0.05666189      -0.09794527       0.11675835      -0.06437886      -0.29759943       1.20048916
H       19.01023130      12.88236429      11.38500306      -0.17087987       0.08121535      -0.17381121      -0.55128545       1.01661360      -0.03649350
H       20.22672019      13.77519369      10.67664655      -0.06615764       0.38384212      -0.07900987       0.31041873       0.73861766       0.47193223
H       18.62405482      14.36956691      10.34109095      -0.06868290      -0.16576413       0.14268156      -0.45940691      -0.25640464      -0.00270034
C       -0.58900190      -4.04045016       7.15633428      -1.09925396      -0.41526392       1.40667011       2.24823689      -2.91336179      -0.09169888
N        0.74091428      -3.40433348       7.11821439      -0.62020500      -1.08035609      -0.82777405       0.29832876       1.31149197       1.23698807
C        1.68526148      -3.46431733       6.14066350       1.12756586      -0.24307292      -0.45805369       0.71963787      -1.76323903      -1.97579741
C        2.88527621      -2.91717077       6.55993120      -0.51361053      -1.01942604       0.60432226      -1.74300647      -0.06296653      -0.12204671
N        2.55244076      -2.41214093       7.79676366      -1.54166612      -0.91280380       1.27321044       1.71862006       0.32239038       0.51828492
C        1.31503654      -2.66444158       8.15761570       0.80257267       0.00140111      -0.09526476      -0.64561576      -1.77202106      -1.30926037
H       -1.26602927      -3.34481479       7.54041895       0.00304470      -0.15025646       0.18675516      -1.28919816       0.76378047       0.66458803
H       -0.52182130      -5.03717537       7.73875785       0.02417221      -0.01042998      -0.18645732      -0.16942000       1.76616776      -0.19267315
H       -0.83638313      -4.43471326       6.17068217      -0.13792164       0.05700148       0.22888468      -0.21966158       0.59297562      -0.35131902
H        1.51533977      -4.06691654       5.24132286       0.43778638      -0.17556790      -0.12244465      -0.05618876       0.32362938       0.19472367
H        3.86260747      -2.85062136       6.06403807       0.04359015      -0.13987014      -0.07165853      -0.66466874      -0.13961916       0.60877383
H        0.93768799      -2.59790244       9.15622972      -0.42236266      -0.30851254      -0.00995110      -0.38306028       0.29522523       0.18311569
C       24.68090936      16.66886078      15.47938586      -0.09657515      -0.06681579       0.90040149      -2.53903246      -0.35536063      -0.76918805
N       24.32516469      17.42751405      14.20145943       0.50598699      -0.76451892      -0.10542791      -0.24875277      -1.37838781       1.60169792
C       25.07878839      18.33539729      13.61781929       0.26148705      -0.53584998       0.25598307       4.25465870       3.08417082      -1.48105276
C       24.54732930      18.66811989      12.31758198      -1.14305097      -0.21592665       0.35324177      -0.82909775      -0.95424980       3.33191109
N       23.33975682      17.95905017      12.24711300      -0.01033682      -1.16649296       0.26735498       0.28354877      -1.36892128       0.82033181
C       23.26998230      17.19582943      13.38929073       0.20662768       0.33557489      -0.70975972      -0.93729430      -0.10412949      -0.29086596
H       24.72088258      -3.57315184      15.25602023       0.00127120      -0.13649421      -0.09546591       0.88064629       0.65082705      -0.01931396
H       23.83444808      -2.44190084      16.20333073       0.02234608      -0.26652808      -0.20098357       0.15594248       0.44078523      -0.47452396
H       25.50115740      17.13295076      15.98980745      -0.03643984      -0.05882699       0.10389773       0.91023183      -0.01839632      -0.08327961
H       26.04777249      18.73887717      14.16217391       0.25163874      -0.15743702       0.15846512      -2.27111793      -0.71732610      -1.50011683
H       24.72260610      19.57275652      11.73643948      -0.12021419      -0.10188502      -0.15535824       0.24133143      -0.71756470       0.12170637
H       22.52450031      16.49167069      13.81328919       0.11400656      -0.08260945      -0.41963530       0.06401855       0.66285509      -1.21631408
C       12.20822765       8.31364130      19.53512877      -0.18376136       0.15878910       0.52000990      -1.10384643      -0.76502973       0.91966730
N       11.07120395       8.56524820      18.60926683      -0.34887516       0.60698727       0.52560679       2.61766338       0.02503318       1.59158623
C        9.73491726       8.47688814      18.86015831      -0.50904055      -1.18299718      -0.61820649      -0.19619234       0.66047317      -0.13402909
C        9.17987710       8.87903454      17.68025956      -1.19108394       0.86509951      -0.76494687      -1.56206942       0.44671673      -2.27227211
N       10.15235989       9.09758359      16.66001699       0.57782529       0.09038007      -0.08040483      -0.76748502       0.08087826       1.61315989
C       11.29656159       8.94241853      17.33228249      -0.59135521       1.04607441       0.05776663      -2.61420774      -0.29014868      -0.03509891
H       13.05642134       8.11829678      18.89210023      -0.07221510       0.13081364       0.07047546       0.62273455       0.19234657       0.12055595
H       11.99160122       7.38328987      20.11678867       0.36294648      -0.32600725      -0.05602137       0.11821940       0.37813255      -0.41041410
H       12.38819975       9.08598681      20.32232770       0.09963700       0.17497119       0.11771483      -0.14734991      -0.03639224      -0.85179657
H        9.34191692       8.31635126      19.84786992       0.12590185      -0.17240376       0.04011612      -0.06279772      -0.14231730       0.10265356
H        8.13431285       9.20195987      17.43607844       0.15781833      -0.16025427      -0.03188705       0.90052354      -0.53038955       0.51484263
H       12.23817179       9.01525794      16.92221728      -0.08182369      -0.03616687      -0.10989083       2.16609120       0.30619153      -0.81414098
C       16.31933940      15.56539297      16.24960601       1.51634898      -0.82066662      -0.59289443      -1.50296199      -3.18431520       0.50799781
N       16.73061212      14.12440123      16.50661426      -2.07706571       0.28372363       1.29594691      -1.79973114       1.74743783      -2.44846630
C       17.66968765      13.74526047      17.35134336      -0.12973581      -0.12259561      -0.82993739       1.64284313      -3.07371712       1.06796467
C       17.86778666      12.31584213      17.14061709       0.45477041      -0.01367462       0.22736238      -0.40565175       3.12246490      -0.68230116
N       17.08448671      11.99989556      16.08172179       0.34145333       0.38152363      -1.41496545      -1.18201518       0.52885574      -0.46225804
C       16.36731985      13.07590587      15.71796536      -0.21818530      -0.33823321       0.93711920      -0.72980285      -0.64053583      -0.41253012
H       16.74675772      16.19251758      16.94629690       0.24642190       0.13572657      -0.26283846       0.83153003       1.15734255       2.10004950
H       15.22118301      15.60259181      16.27754193       0.30228525      -0.46927331       0.15106256       0.39981085       0.19735658      -0.10731687
H       16.67976528      15.91373651      15.34328725       0.26682070      -0.03003258      -0.01483695       0.63465500       0.32420084      -2.35617089
H       18.12214976      14.53336322      17.90401209      -0.00572127       0.09069627       0.18181781       0.71132606       0.09722188       0.79455179
H       18.52377998      11.53957533      17.41204770       0.10995232      -0.11518353      -0.14091154       1.08897722      -0.39216572       1.10927474
H       15.48595422      13.01895752      15.04162432      -0.07442640       0.25437025      -0.24963459       0.76806402       0.43369022       0.53565568
C       -0.05179782       6.35081905       2.20794420       1.56992466      -0.59705554       0.40468828       3.32137156       0.57647520       0.09972066
N        0.49599331       7.15911096       3.35921954       1.65793009       0.51194031      -0.20285128      -2.00516033      -0.68092000      -2.47580099
C        0.63713809       8.52364599       3.45232893       0.38850916       0.50468124      -0.15399042       1.08653879       0.96140087       1.34098816
C        0.94010845       8.70233517       4.79513091      -0.23049863       0.55399127      -0.64350659       0.32888407       0.26316804      -0.55016249
N        0.97780622       7.50034312       5.46931538       0.06414114       0.64848881       0.23687992      -0.76006067       1.06445861       0.62902814
C        0.60486036       6.62054575       4.56311830       0.43231981       0.23429872       0.10193226       0.87874317      -3.64292049       0.81114948
H       -1.07051414       6.23883943       2.20154840       0.11858336       0.16563834       0.04173854      -2.83531165      -0.05502976       0.65885335
H        0.41153203       5.33779217       2.22922547      -0.19237083      -0.09790645      -0.15540233      -0.01627301       0.80796272      -0.24873750
H        0.15085224       6.93460680       1.30573242      -0.03434461      -0.20678766      -0.32389415       0.40734848      -0.35114786      -0.04430710
H        0.83701756       9.32551347       2.72483609      -0.10149264      -0.00387933       0.17915130      -0.54417580      -0.94788802      -0.19804400
H        1.29908249       9.60650537       5.21330530      -0.08124632       0.15854212       0.31646851       0.11513236       0.66981316       0.51915556
H        0.57874532       5.48391279       4.71105590       0.17938044      -0.01748782       0.05802604      -0.01072860       1.66827083      -0.12947339
C       11.74399165       5.89017097      16.90620530       0.30641305      -0.28022690       0.44076918       2.48928738      -0.92711717      -1.33130240