640
Lattice="19.152215 0.0 0.0 0.0 19.152215 0.0 0.0 0.0 19.152215" Properties=species:S:1:pos:R:3:momenta:R:3:forces:R:3 energy=-80128.2734375 stress="-0.018643224611878395 -0.00350037869066 0.0006169570842757821 -0.00350037869066 -0.021224386990070343 0.003290829248726368 0.0006169570842757821 0.003290829248726368 -0.021717119961977005" pbc="T T T"
C       12.07384527      -7.06989455      14.72971514      -0.46572546      -0.42061258      -0.26467063       0.49346307       0.61757922       0.04151362
C       12.72428231      -6.78026194      13.40003192       0.60397776      -0.20270099       0.03706257      -1.24983954      -1.01225138      -1.05207098
O       13.74433493      -5.95523756      13.51416592      -0.08374007      -0.01975666      -0.28438410       1.53583813       0.53395665      -1.52599192
O       12.32347433      -7.27667181      12.31756993      -0.21053627       0.54225973       0.48769719       0.45027649       0.47501829       0.68786079
H       15.70492978     -13.84552334      29.90380681       0.00413861       0.32112779       0.07740986       0.46973580       0.15508988      -0.16863395
H       12.84902505      -7.62341658      15.29903076       0.16585415      -0.08487307       0.09025236      -0.46624616       0.31719559       0.17104448
H       11.15677782      -7.65563762      14.67211566      -0.00565602      -0.44314443       0.19727949       0.04280642      -0.16334599      -0.17631817
H       11.85103479      -6.08027221      15.18202438      -0.03337631      -0.07109698       0.14674020       0.30249643      -0.52048939       0.17369989
C       -1.38824145      20.37577183      20.80291785       0.77395459      -1.17220079       1.30557138       0.75906372      -1.56864643       0.16610503
C       -1.41853510      19.70913053      19.46690470       0.51028617      -1.72911108       0.18031966       0.43080941       0.20398301      -0.53707874
O       -0.80123427      18.67843566      19.19664066      -0.48719835       0.02747525       0.50350361      -0.47859737       0.36332011       0.13603586
O       -2.13452097      20.34193176      18.51575106       0.10345461      -0.42571763      -0.47223641       0.72974187      -1.64991355      -0.96019459
H       35.97474678      27.33282540       5.39638761      -0.13984728       0.31411164       0.11183369      -0.37908906       0.41072798       0.19913016
H       -0.34911863      20.59796767      21.05654372      -0.28255031      -0.09819141      -0.00374746       0.13213231      -0.21291885       0.36438352
H       -1.81535180      19.60959477      21.44999169      -0.06628988      -0.21655778      -0.10627230       0.41255623      -0.23098071       0.63821226
H       -1.98614348      21.22000683      20.95297368      -0.15999261       0.06734108      -0.14668126      -1.04413438       1.58996391      -0.33456725
C       15.47564975     -15.43644062       7.22251587      -0.39208494      -0.09624909       0.75626626      -1.36609817       0.24059945       1.53008735
C       15.33202605     -14.46008825       8.37088134      -0.33675055       0.20891383      -1.07375766       2.95239830       1.20610917       0.41624999
O       14.51454800     -13.49416470       8.11298643      -0.29097486       1.56221886      -0.84523823      -1.23434234       0.92582619       0.02454773
O       16.14255332     -14.35001382       9.34899979       1.28671554       0.30763976      -0.01772109      -0.56965768      -0.96852440      -0.72279871
H       12.88570916     -14.04313221       3.14443897       0.09555246      -0.09720632      -0.15141265       0.01086143      -0.01802099      -0.44866282
H       14.41684163     -15.57097079       7.05799514       0.14354135      -0.20303269       0.03391784      -0.44973835      -0.48199093      -1.13880229
H       15.92351820     -16.38023185       7.46795948       0.00482376       0.03028111       0.00573185       0.49549377      -0.14637528       0.14326094
H       15.96845718     -14.95265249       6.39506716       0.17567011      -0.36255322       0.09824029       0.11920931       0.14899941      -0.45698395
C       13.44666900      -3.09909673     -12.63282562      -0.65213753      -0.36345463       0.94068163       0.07622451      -0.07594442       1.34626639
C       13.60025295      -4.07932748     -13.78541072      -0.16814016      -0.04173174       0.50929228       0.57986790      -0.84707975      -0.42916632
O       14.79179581      -4.39153936     -14.09735581       1.06773633       0.10952498       0.80509631      -0.82207221       0.20443720      -0.09656072
O       12.54188379      -4.61543976     -14.36584396      -0.79291341       1.31109691       0.85004680       0.62636340       1.14403653       1.24124527
H       10.96574252       0.73234097     -11.71038965      -0.23902424      -0.10485547      -0.28794865      -0.36806715       0.26530892       0.42698535
H       12.41316612      -2.75632621     -12.38590812       0.12756083      -0.05164973       0.24595930       0.66781211       0.36314714      -0.83657598
H       14.25755866     -21.44566252     -12.69884545      -0.00257611       0.03430403      -0.09446690      -1.40967417      -0.76437253       0.10562973
H       13.65367110     -22.80216230     -11.65862143       0.25497317       0.22909633       0.54441968       0.21134190       0.33243769      -1.10053110
C       13.71504726      43.21536584      -0.26783864       0.40438523       0.58471810      -0.25141038       0.56839520       0.84934026       0.94993746
C       14.91856429      42.36489559      -0.60544358      -0.21255184      -0.29791714       0.79688902       0.75627804      -0.10649401      -0.36400598
O       15.38315569      41.42825157       0.09319338       1.04402590      -1.05063388      -0.21059957      -0.47223398       0.67666274      -0.30955672
O       15.52185813      42.82929201      -1.71611484       0.88047719       0.78707299       0.04645667       0.18072845      -0.13564402       0.17102939
H       -2.53596424      21.13960811      18.86573325       0.18909569       0.17300716      -0.06652088      -1.02560925       1.32357907       0.54873556
H       12.99876702      43.37502593      -1.08931051      -0.06190369      -0.01714648      -0.21312267       0.12732004      -0.54698122       0.06265220
H       14.19579842      44.23429463      -0.13279588      -0.05060267       0.01765464       0.32520631      -0.69565934      -0.62526691       0.19090167
H       13.21942501      42.94373862       0.71254364       0.08552207      -0.15118803      -0.26579081       0.81020963       0.03904356      -1.35328841
C       18.96461920      -0.91182995      14.73554262      -0.35366869       1.58244529       0.14527904       0.00631474       0.40256077       1.17778265
C       19.04807355      -0.78309922      13.23809629       0.13550290      -1.63076969      -0.51212664       0.29519087       0.40225455      -1.57220531
O       18.41823165      -0.06452314      12.43752952       0.12322282      -0.33868334       0.78430365      -0.10440499      -0.24641585       1.60420012
O       19.98418918      -1.58231587      12.67661911      -0.69192294      -0.83830794      -0.86911388      -0.17820972      -0.31145915      -0.52247477
H       22.01741945       3.54547969       5.24121832      -0.10120627       0.08975316       0.17003260      -0.13967735      -0.38286197      -0.10732341
H       18.98745306      -1.98032710      15.04579495      -0.28174758      -0.33083282      -0.07237916      -0.34417534       0.52558011      -0.22052084
H       18.13098250      -0.35366487      15.16359487       0.09471554       0.27778747       0.11496877      -0.66490793      -0.34250820      -0.23664263
H       19.78424044      -0.45043761      15.34791052      -0.17670815      -0.08711871       0.16246070       0.09697412      -0.30815393      -1.02483296
C       19.42233133     -13.52774901      -9.85357012      -0.56202910      -1.58415936      -0.70862628      -0.01526934      -2.12796521       1.54059052
C       19.94970863     -12.24224989     -10.26327417       0.75787030      -0.40767709       0.40356282       1.87457359       2.37783551      -1.66651750
O       19.13096192     -11.26495412     -10.22989901      -1.25410201      -0.29003442      -0.32766049      -1.73751426       0.34507531       0.64181793
O       21.13141707     -12.03399625     -10.72744158       0.25625005       0.47197353       0.27397810      -0.01115328      -1.15208077       0.48077917
H       -0.28490013      -8.88903010      -0.85916603       0.06761757       0.10484972       0.20179235      -0.08732128       0.78095144       0.26813221
H       19.52536347     -13.62559294      -8.73974655       0.16421268      -0.09367952      -0.24510979      -0.24180146       0.32328993      -0.46488100
H       20.04354326     -14.37357449     -10.19068735       0.09014643       0.16048152      -0.09946914      -0.24814934       0.20197894      -0.35682732
H       18.34886278     -13.63487846     -10.08476322       0.08611483      -0.02099642       0.04829426       0.45631027      -0.07359036       0.07554585
C       15.21707115       6.13765207      13.99068551       0.02137035      -0.47795638      -0.30162152       1.23823118       1.26635194      -1.19037378
C       15.84990807       6.16947445      12.59598975       1.18388672      -0.85758528      -0.01542068      -0.71818280      -0.11443099       0.15337181
O       15.34028148       5.29805192      11.68783289       0.54565180       0.61668440       0.44697552      -0.79823220       0.17648578       1.77630854
O       35.93625087       6.91244315      12.38057339       0.27596636       0.34160375       0.25762279       1.33095753       0.56289661      -0.50764304
H        4.02053847      16.55721691       9.59903066      -0.05367734       0.00166630      -0.07293319      -0.93426359       0.39444739       0.22231326
H       14.20608608       5.89758209      13.92160080      -0.36943781       0.21495649       0.07063031      -2.17170739      -0.12731348      -0.01710643
H       15.46087979       7.00015879      14.65456624      -0.44268550       0.07887422      -0.14876423      -0.10687551      -0.54424948      -1.05402505
H       15.68722372       5.30186142      14.39401688      -0.07964810      -0.17072907      -0.01013398       0.96658576      -1.86713076       1.49487650
C        8.18876703       2.37128649     -12.47480091       1.50450425       0.32367638      -0.09186995      -1.21279645      -0.58711153       1.84199166
C        9.18699805       1.74182597     -11.55784023       0.82545139      -0.06292423       0.05816110       0.51547027      -0.48904133       1.63168859
O       10.30559598       1.28632363     -12.22729443       0.67157359      -0.42534298       1.05304095      -0.11611006       0.09748669      -0.27190983
O        9.02979075      20.74737854     -10.34072805      -0.87495554       0.49268810       0.24811528       0.27233875      -0.05352825      -0.66380572
H       14.65563636      25.68065814       8.81387319      -0.49726179      -0.03242688      -0.18762766      -0.02061838       0.04489273      -0.12342906
H        7.55627378       3.15869796     -11.97584313       0.17131404       0.11489934      -0.17485825       0.76739907      -0.69922590      -0.37330279
H        7.51545392       1.54581260     -12.76909752       0.06368609       0.20098465       0.05800297      -0.06438949       0.22403482      -0.31496736
H        8.72614969       2.72247002     -13.29291341       0.17304969      -0.13252278       0.10205619       0.64869881       0.91938818      -1.95401776
C      -12.26911261      24.92921723      24.00760687      -0.30191668      -0.57263302       0.38435434       1.60462177      -0.55275726       0.44197106
C        6.50460588      25.40314068      25.42095362      -0.86359284      -0.31182327       0.63871565      -2.18557239      -0.00947909       0.28657264
O        7.35533052      26.20426596      26.14026286       0.95443171      -0.73400011       0.46081267      -1.68512499      -1.05225468      -0.47267568
O      -13.80766492      25.10247252      25.86937465      -1.09402585       1.03267929       0.32341821       3.13040304       1.81054664      -0.48570299
H       15.51200385      11.60583170      16.13255056       0.08872721       0.27370409       0.21864283       0.54816657       0.93051863       0.63937026
H      -11.18248537      25.15848179      23.89800426       0.11103298      -0.01719241       0.07174899      -0.48417646      -0.53631806      -0.28947598
H      -12.73893618      25.49198795      23.19969894       0.49524914      -0.22109436       0.18522627      -0.43747371       0.20045295       0.14734814
H      -12.47097621      23.82205390      23.80111817      -0.26226639      -0.22489320       0.02318662       0.18432073       1.36698294       0.63502628
C       22.96267627      25.97570004      11.25166143       0.74733364       0.19348044      -0.13409376       0.48375744       0.30022782       3.13500571
C       24.10766111      26.94867629      11.41931488       0.27216372       0.50871672      -0.02371439      -0.23457420       0.35185993       0.51027179
O       24.16148744      27.99101448      12.12027317       0.03069989       0.06907762      -0.58631162      -0.72580737      -0.74230129      -0.70195317
O       25.16434621      26.47152455      10.80788047      -0.39621756       0.43481817       1.08097541       1.10715032      -0.15302181      -0.30173236
H       26.02090856       7.98309237      11.04127024       0.00452028      -0.16377152      -0.01072748      -0.36304519       0.19568795      -0.49530300
H       23.20046071      25.14960682      10.59074425       0.04391177      -0.14414276       0.18729841      -0.22197703       0.07805146      -0.21716368
H       22.01152946      26.45683521      11.17944342       0.02086614      -0.05138014       0.04058227      -0.77041101       0.48220959      -0.94405186
H       22.85351110      25.63063406      12.33988102       0.04776876       0.27473456       0.01938346       0.00203850      -0.37225562      -1.20055461
C       -0.19261923      12.08776321      21.10957142       0.67410151       0.62147419       0.61610242      -1.18553948      -0.03787303      -0.12842488
C        0.05502161      10.86216338      20.21158985       0.31880687      -0.11998087       0.66286137      -0.09287122       0.69974506       1.21575928
O       -0.61654708      11.02182855      -0.05531356       0.89773585      -0.47798186      -0.32544284       0.43553615      -1.18214953      -1.19856668
O        0.81202663       9.91884544       1.37963936       0.34827351      -1.36977519      -0.70365917      -0.55962747       0.42741644      -0.81016827
H        4.60623399      13.46732066      25.09973156      -0.08159812       0.19700237       0.10999567       0.65354133      -0.55888253       0.39130831
H        0.11838193      11.93731713      22.17434717      -0.06790175       0.33630116       0.02130703      -0.01830466       0.35029352      -0.94170642
H       -1.29581050      12.37733089      21.04872488      -0.27366124      -0.04963440       0.24500692       1.05632830      -0.62049830       0.38011846
H        0.27420302      12.91339152      20.54185281      -0.20319943       0.08774134       0.07181633       0.35722369       0.06835854       0.79689831
C       17.96156750      21.21679152       9.33395357      -0.29435297       0.48500384      -0.91326014       0.85183960       1.12828588       0.43282673
C       18.05054749      20.62071336       7.94797187       0.63479763      -1.11651840      -0.04256091      -0.15862811       1.68294406      -1.69687235
O       18.14641836      19.29126479       7.94857132      -0.06772765       0.25807787      -0.71994261       0.23101181      -1.06757915      -0.82713914
O       18.04339155      21.31249918       6.89256938      -0.19399564       0.32660602       0.51077911       0.14600185      -1.07762194       1.35616469
H        8.33055896      26.12796708      25.81013661       0.21807726       0.22471526       0.01184729       0.36842558      -0.57710373      -0.51358223
H       17.26663030      22.10380920       9.48513633      -0.15450992      -0.02498342       0.23058904       0.88199639      -0.91477609      -0.66874242
H       19.01270843      21.52187573       9.66712252       0.14340379       0.22108909       0.07649346      -1.17978120      -0.17577004      -0.44069558
H       17.65651197      20.45211581      10.01822034      -0.10723363      -0.02799294       0.06105883      -0.21057861      -0.75016677       0.69998330
C       22.80892631      -8.06436616      13.99974957      -0.84380927      -0.00859802       0.04669807      -1.81819677      -0.96006221       1.84135842
C       23.79874964      -7.36409445      14.85544026      -0.01289184      -0.04123386       0.13735744       0.99282485      -0.69054985      -0.17525440
O       23.95273796      13.07463117      14.56301790       0.45914368      -1.23905718       0.21753085      -2.11772680       0.41399539      -1.21522188
O       24.58480082      -7.90265415      15.63705449       0.51845989      -0.61990339       0.58608903      -0.49782419      -0.93130666       0.50522304
H       43.97074196      -5.87129445      14.96301074       0.01697008       0.21543761       0.30225515       1.86765778       0.80270904       1.11247313
H       23.08573677      11.25554290      13.00498407       0.13809078       0.04572246      -0.05518328       0.37239283       0.21955904      -1.93621469
H       21.76693276      -7.65544222      14.15304176       0.28243699      -0.00749164      -0.06448782       0.87922853      -0.40152517      -0.11722811
H       22.83845286      -9.17191252      14.16514807       0.21572490      -0.04671417       0.07151038      -0.09848167       0.86640501      -0.03360803
C       -4.44722617      15.71193608      -9.17828196       0.47312300      -0.91312441       0.63853728       1.93491971       1.10843766      -1.06412899
C       -3.52327382      15.04080292      -8.15856037      -0.96767246      -0.11416416      -0.44945506      -0.80676663      -1.05012202       0.05521083
O       -3.82022700      13.82212767      11.31649383      -0.46234342      -0.33199211      -1.10645827      -0.37431383       0.27761859      -0.00368327
O       -2.56175044      15.69121197      -7.64404148       0.47137129      -0.54901683       0.83102096       0.27310383       0.11559248       0.03692061
H       -2.00128085      14.75388831      -6.62426435      -0.24736935       0.06964537      -0.13732298       0.19650719       0.18035331      -0.73637575
H       -3.88365749      16.25714817     -10.00777403      -0.01047743       0.00265037       0.01143110      -0.11540228      -0.78846014       0.83192790
H       -4.92835944      16.56138179      10.43849397      -0.17201996       0.27142150       0.18384568      -0.76432037       0.06612229       0.27751118
H       -5.08023672      15.01106951      -9.70125677      -0.16513284       0.16843131      -0.20922315      -0.55447239      -0.25561932       0.30406711
C       19.55755582      13.56327103      12.22014300      -1.30684345      -0.43612986      -0.00989427       0.41140127      -1.21186376       0.18517077
C       18.48793992      13.20658169      13.20529585      -0.54138053       0.15711396       0.13654356      -2.32350588       0.41808248       0.72997570
O       17.40876662      14.11159423      13.29155591      -0.52204688      -0.92915948      -0.94366116       1.61602950      -1.74978089       1.11425686
O       18.50270712      12.24943751      13.99925480       1.02951327       0.47893193      -0.24535591       0.26998505       0.95332915      -1.05419040
H       -4.86239658      13.37320307      -6.55746272      -0.14186056       0.09336478       0.11754556      -0.75340950      -0.27856275       1.17655575
H       20.48022136      13.48619556      12.79339149       0.01554115       0.13225892       0.39563803       0.45391494       0.16378319      -0.06650284
H       19.37804950      14.55871681      11.92065784      -0.30725211      -0.22463261      -0.32575803       0.05813019       1.41953063      -0.57732052
H       19.69982972      12.92842740      11.31969878      -0.08365069       0.06682733      -0.03165952      -0.56572002       0.01492389       0.47752959
C       -0.67572925      -2.72740648       9.29824591       0.40110003       0.38749367       1.00497140       1.27624333      -1.66814971       0.30830568
N        0.78547203      -2.68995215       8.85591975       0.60901543      -1.59149025       0.09107550      -2.30850768      -0.37544864       1.32132244
C        1.29869652      -3.44496735       7.84790907      -0.90032877       0.64094691       0.69596675       0.81119168      -0.20568842      -2.50681996
C        2.69221931      -3.46842115       8.05207594      -0.11623951      -0.47144224      -0.46105675      -1.65301442       0.32194984      -1.48021567
N        2.93406430      -2.75220639       9.21528350      -0.99939006      -0.49657812       0.76869649       2.33480573      -1.73799562      -1.19708860
C        1.77665763      -2.44015832       9.72714705      -0.11514530       0.11053689      -0.10951699      -0.73852140       1.84270239       2.52795768
H       -0.72105131      -3.71380897       9.79858716       0.00086680       0.00721267       0.35369267      -0.32861573       0.38412017      -0.02270428
H       -1.38602605      -2.77906020       8.48036970      -0.10729199       0.07628500       0.09148080       0.21620980       0.41973948      -0.47823972
H       -0.91440344      -1.97370040      10.03393976      -0.07109319       0.17279182      -0.19894865       0.12047842       0.47744113       0.02468005
H        0.67907322      -3.71174098       6.90786367       0.06902302       0.08389801      -0.25015928       1.11771595       0.31002736       1.85323894
H        3.39171484      -3.68835471       7.24717152      -0.32881236       0.00932054      -0.08138589       0.38834792      -0.00709002       0.57181025
H        1.66893397      -2.16787303      10.80596103      -0.27668716      -0.27953918      -0.13196686      -0.22943848      -0.01194629      -1.20016229
C       25.04343818      18.34011866      13.98482036       0.72871352       0.27259883      -1.17391080       0.07619967      -0.86568177      -3.13784981
N       23.82877644      17.55642458      13.95560186      -0.50867051       0.17044426      -0.50905248      -1.48126566      -1.54484820       0.39505923
C       23.76060248      16.14703392      13.69548684       0.52951995       0.51466094       0.17608970       3.41868973       1.81791449       0.58964717
C       22.49343398      15.82191956      13.95843183      -0.11834819      -0.93370946      -1.30687137      -2.22417951      -0.17056137       0.18847811
N       21.72239459      16.90591362      14.44086521       0.15477082       0.84449767      -0.48267478       1.42986500      -0.45180213      -0.70031977
C       22.57443737      17.93657769      14.38562969      -0.24109980       0.25598151      -0.28186763       1.67989862      -0.97713685      -0.02819972
H       25.85306682      -1.51985748      14.11255286      -0.33211458      -0.08106420       0.18636156       0.49780017      -0.11831993       0.33405983
H       25.00249815      -0.11684635      14.77233887       0.14377505      -0.13588688       0.44507438       0.00064968       1.26409745       0.90520817
H       25.16350510      18.73872510      12.91803785       0.07755656       0.00956156       0.01435828       0.14713748       0.11196741       1.44993889
H       24.77882635      15.62796864      13.68044373      -0.01703879      -0.20505248       0.17843112      -1.91101813       0.44652265      -0.36317623
H       21.96056684      14.98227855      13.57186534       0.11804138       0.18768621      -0.10823644      -0.14279449      -0.70359421       0.15282361
H       22.46797863      18.92043197      14.76907860      -0.02756974      -0.23799362      -0.03551743      -0.51887560       0.76681614       0.32115877
C        7.24853138      10.52511280      18.43595263       0.44754425      -1.25797386      -0.31418024       0.06788266      -0.78876495      -1.39587116
N        8.55695765       9.91896331      17.99798637       0.29069436      -0.61205610      -0.22400565      -2.15836334       1.04220700       0.88941073
C        9.60332640       9.58084728      18.82181712       1.19261609      -0.48704798       0.99863460       1.30430675      -0.85473138      -2.82759476
C       10.55823087       9.13658998      17.88427245      -0.66629650      -0.24637640       0.03525378       0.97175199      -1.07655680       0.83511782
N       10.14987717       9.26629701      16.55093670       0.58373298       0.32078874      -0.13417749      -0.75591099       0.27178645       1.19624376
C        8.88495340       9.75367207      16.69845376       0.19869599       0.44833708      -0.14124170       1.49884391      -0.78476918       0.44282794
H        6.42702460       9.81026622      18.50560408       0.00305964      -0.13663162      -0.22219540       0.38586578      -0.66243762       0.27207392
H        6.82866433      11.21295048      17.68396916       0.23354913       0.00883948       0.35999870       0.74299133       0.12610537       0.19464454
H        7.45971109      10.92330694      19.39309876      -0.11995889      -0.16768079      -0.05034854      -0.19571349       0.93985385       1.09710109
H        9.75739723       9.67696734      19.87053773      -0.24408310       0.03681786       0.05717562      -0.68983650       0.24780574       0.66915554
H       11.45732741       8.51416674      18.21619509       0.20589255       0.23773748      -0.26723792      -0.99205202       1.05337000      -0.83559304
H        8.11293078       9.84778291      15.97495160      -0.05649267      -0.11897943      -0.41446658      -0.37934500       0.20393682      -0.94937551
C       17.38713065      16.17278746      17.21764921       1.92685261      -0.62103040      -0.30752373       0.66702867      -0.99889201      -1.20686042
N       17.09991201      14.74753178      17.42051233      -0.35192990       1.17195690      -0.16338074      -0.56273067      -1.63958561      -2.50471020
C       16.92748942      13.96261590      18.54353745      -0.28133072      -0.00107270       0.87450920      -0.73838645       1.60381138       1.91235971
C       16.17301631      12.83905261      18.27008137      -0.28157982       0.60271175      -0.27244337       1.97232664       2.55858040      -2.71150303
N       16.06862200      12.89423794      16.87987508       1.15492422       0.53309940      -0.57527205      -1.75097704      -2.25717211      -0.56173337
C       16.58710926      13.96655404      16.35525393       1.14784928      -0.78166763       0.14318694       1.10086381       0.64220452       1.14130068
H       17.42539531      16.58186491      18.18126746       0.08238369      -0.09670478       0.02815138      -0.32228643       1.35070884       1.40817022
H       16.59415960      16.60078698      16.53335010      -0.10963197      -0.20782306      -0.08237844       1.01624691      -0.19998391       0.85544616
H       18.44035751      16.27600712      16.83037744      -0.22074775       0.28729581       0.01818306      -1.00403690       0.08138958      -0.11605427
H       17.13152186      14.46453917      19.47686317       0.28348696       0.20448777       0.11822070       0.18781780      -0.27663302       0.40013874
H       15.87474176      11.97776426      18.77765606      -0.31447834      -0.19347038       0.17969200      -0.43410009      -0.82777500       1.08464432
H       16.85588215      14.04344868      15.29200980      -0.45160858      -0.41609047      -0.10965421      -0.27041084       0.41505921       0.42215124
C        1.56202319       7.18348253       2.44904429       0.12692270       1.16664502      -0.61732045       1.87015092       0.96616167      -0.05192780
N        1.79403214       7.76799581       3.77798067      -0.18020963       0.49730418      -0.85111439       0.06431288      -0.42439282       0.91791379
C        1.64277653       9.10963650       4.09826052       0.74847590      -0.24692697      -0.37370148       1.29621792      -2.06642532       2.60862374
C        1.89997180       9.20261894       5.48977556      -0.94949302      -0.81683095      -0.87194943      -1.39515996       0.01943249      -2.78582048
N        2.16476957       7.94734013       5.94804792      -0.41087103       0.30313805       0.90872487       0.59831858      -0.56574351      -0.81406665
C        2.12651945       7.09031591       4.90981452      -0.83160976      -0.22684733      -1.18096279       0.53266621      -1.79893732       0.09782510
H        2.37521312       6.46191017       2.20042334       0.04593424      -0.00015375      -0.25705105      -0.76412219       0.34817150       0.02916037
H        1.52499202       8.03273194       1.76265172      -0.05394763       0.16928790       0.20624496       0.79021454       0.11422241      -0.25059575
H        0.57410902       6.85675974       2.32630199       0.00312489      -0.45437095       0.24097416      -1.52390933      -1.40482736       0.35127386
H        1.46783515       9.72271732       3.28065519       0.27333665       0.10368449      -0.17779620      -0.39706713       1.78166950      -1.02706838
H        1.41552196       9.93160412       6.07501898      -0.05226463      -0.14620193       0.36710012       0.18726905       1.01049066       1.11250901
H        2.38036702       5.97856860       4.99097847      -0.01129888      -0.22257246       0.23802347      -0.14017354       1.78649116      -0.43105000
C        8.78793760       6.14579998      15.24602840      -0.08383984      -0.04562198       0.17341553       2.20762396       1.68339610      -1.24831390
N        9.98553303       5.22668952      15.49024490      -1.58248190       0.47873914       1.00103751      -4.88906431       2.73176003       0.25649607