640
Lattice="19.152215 0.0 0.0 0.0 19.152215 0.0 0.0 0.0 19.152215" Properties=species:S:1:pos:R:3:momenta:R:3:forces:R:3 energy=-80129.3046875 stress="-0.01703024096786976 -0.00011286266089882702 0.004127323627471924 -0.00011286266089882702 -0.015274282544851303 0.0005897279479540884 0.004127323627471924 0.0005897279479540884 -0.01905389316380024" pbc="T T T"
C       13.84851976      -3.76523673      14.26010751      -0.37737263      -0.37417414       0.18162431       1.20869088      -0.62989378      -2.92647743
C       13.87638040      -2.83976807      12.98122297       0.49364414       0.76922879      -0.20527593       0.25890866      -1.59913254       1.55116904
O       14.97945443      -2.69145929      12.26881832       0.03984759      -0.40790024      -0.51678114      -0.70706421       0.26956105       0.57924742
O       12.78432489      -2.30333265      12.75018218       0.95614797      -0.76924053      -1.56801888       0.18526089       0.78861165      -0.90764916
H       14.77701671     -15.15340218      28.63160414      -0.05451541      -0.25508642      -0.28672124      -0.55497068       0.97898698       0.49158251
H       14.76183634      -4.37135252      14.41277123      -0.22180459      -0.20705939       0.09932422      -0.45557311      -0.04053707      -0.42122665
H       12.92596821      -4.32220756      14.12058882       0.19229557       0.14418650       0.17108308      -0.00419426      -0.49015027       0.39826494
H       13.76776664      -3.14473403      15.08099353      -0.07587490       0.16900376       0.01196679      -0.37392017       1.53853428       2.03000546
C       -0.88168351      18.46748260      15.63840532       0.92353640      -0.11227310      -0.31340179       0.82417142      -0.79801077      -0.77878642
C        0.30110097      18.08951307      16.51472328       0.46349939      -0.78818414      -0.34031917      -1.06695068       0.16618681      -0.36123478
O        0.37543963      17.03463623      17.12967288      -0.12841752      -0.34385475      -0.44661169      -0.20645696      -0.46956378       0.42015448
O        1.29187635      18.99590972      16.52467264      -0.33313365       0.52298443       0.31867966      -0.71917272       0.22359657      -0.30788007
H       36.05705458      26.36937775       5.63377449       0.03079836       0.19132374      -0.13325011      -0.30427828      -0.51712418       0.56980413
H       -1.46608952      19.29930654      15.98050264       0.06081995      -0.02507996      -0.07593258      -0.26149327       0.59226829       0.78944713
H       -1.57948834      17.59646182      15.51668290       0.03637575      -0.09414430       0.07161701       0.76895940       0.69316471      -0.18640274
H       -0.39836763      18.81779607      14.70326946      -0.05849704       0.04216639      -0.35551166      -0.63122410      -0.43782327      -0.11639496
C       12.42377476     -15.48804812       7.22336058       0.03635146       0.44899018      -0.25323903      -2.10352898      -0.31616527      -0.93771589
C       12.91662168     -15.26429968       8.60071766      -0.18933620      -0.53660482      -0.11393074       0.70663393       0.34953925      -0.45336509
O       12.25051547     -14.91667354       9.55013272       0.43564745       0.67768977      -0.72555289      -1.63574803       0.49516344       1.75159383
O       14.21723783     -15.38622273       8.63209495      -0.45952194      -0.99054288      -0.16293210       1.86575890      -1.00480127      -0.84244168
H       11.33159808      -9.84153834       1.57227156      -0.10907007      -0.15415315       0.18288101      -0.61758244      -0.52302694       0.83732438
H       11.80604956     -16.44566143       7.16907113      -0.20464268      -0.03325441      -0.21029001       0.54775846       1.16389084       0.12443101
H       13.27403943     -15.59868186       6.58261135       0.16966363      -0.00204609      -0.21641437       0.48133311      -0.14563966      -0.64057815
H       11.79244541     -14.62358238       6.83510908       0.03764056      -0.14115387      -0.12070307       0.45810178      -1.01136303       0.60371691
C       16.03097926      -2.56388829     -15.52145494      -0.01644239       0.16340298       0.60391417      -0.02050167       1.49207199      -0.11982703
C       15.19396735      -3.09543175     -14.37820918      -0.77090814       0.11284487       0.54497641      -0.31982425      -1.01550102      -0.25910425
O       15.72409610      -3.54981960     -13.37355500      -0.21851006      -0.73049051       0.79889275       0.52976525      -0.05008793       0.62196374
O       13.86744871      -3.16167694     -14.49350431       1.10952776       0.41929322      -0.23574464       0.16704059      -0.75231326       1.08947980
H       12.57837500      -0.34563291      -9.72239093      -0.09680474      -0.00198377       0.20116250      -1.10245931      -0.57009506       0.27630302
H       15.41284179      -2.05621953     -16.31055237       0.08891534      -0.15362967       0.16977153       0.64766723      -0.11539565       0.97413117
H       16.60092466     -22.46933875     -16.07700514      -0.35579245      -0.08488897      -0.35961917      -0.02023926      -0.22833262       0.47756481
H       16.74413587     -21.03013620     -14.96277093      -0.11878586      -0.10856165      -0.14106414      -0.52596146      -0.42663571      -1.12495029
C       18.81305327      43.27391055       2.86012565      -0.14192505       0.33333122      -0.34312040      -0.21947534      -1.71880126       3.10717297
C       19.23570316      43.44472148       1.48529869      -0.76755722       1.24291974      -0.15737943       0.15975976      -1.97923028      -1.17670965
O       19.49625267      44.52766868       1.00309154       0.38679422       1.30808539       1.94909985       0.53669381       1.49704289      -0.96989322
O       19.23347793      42.27073112       0.78826812       0.34443609      -0.59271136      -0.30611606       0.30853403       0.78720832      -0.03529114
H        2.01577831      18.49745017      17.02034299       0.19000141      -0.03638748      -0.36397747       0.99100578      -0.16049695       0.25409421
H       18.92188111      44.23774960       3.39355599      -0.16148517       0.05659715      -0.11956710      -0.95819670      -0.31725061      -0.22095793
H       19.49370577      42.58680920       3.53303723       0.03640049       0.08302552      -0.24872732      -1.11902905       0.77767289      -1.59378195
H       17.77853547      42.76421094       2.81205043      -0.33693696       0.12859254      -0.17778597       1.26673663       1.01399589       0.64782143
C       19.42938824       2.92910354      10.83177012      -0.30282928      -0.12457744       1.38266919       0.59155703      -1.60125792      -1.67707276
C       19.80439095       3.51644745      12.15051478       0.82390409       0.68726634       0.18411078      -1.38488960       1.88685071       1.82358432
O       19.49104641       4.72738324      12.48614613      -0.63327113       0.91388373      -0.17301780       1.68320966      -3.56196880      -0.74636829
O       20.30173508       2.61367465      13.06461608      -0.91748609       0.01748351      -0.01595522      -0.18093956       1.91396856      -0.61764455
H       22.39860135       2.13309357       8.55318856      -0.05065556       0.05375039       0.31208262      -0.07722634       0.35025001       0.14921880
H       20.22186857       2.24161007      10.36581370       0.24613531       0.04796615      -0.14989207      -0.58388156       0.98969018       0.86396414
H       19.23574118       3.66994008      10.05378250      -0.21417137      -0.07074222       0.22996205      -0.18430240       0.34575710       0.18540064
H       18.55195151       2.23551323      10.89007126       0.00679762       0.15020729       0.15515711       0.28249294       0.68712580       0.14039513
C       22.84185495     -13.01375011      -7.19458505       0.22992957       1.15091066       0.55429987      -1.32674670      -2.12154722      -1.68090367
C       22.67841810     -12.43731154      -8.59264904       0.48729246       0.67659473      -0.42713667       1.21196795      -0.31356448      -1.26375413
O       22.37084489     -13.24192851      -9.62544172      -1.49249557      -1.75861931      -0.58411803       0.20663315       0.25402218       0.01121438
O       23.00175318     -11.25879317      -8.75541075      -0.30514463      -0.16699315      -0.82167523       0.03368000       1.23349380      -0.31919843
H        1.19277892     -10.20639505      -4.54077889       0.11765407       0.22490469       0.04997999       0.03301038       0.34085113       0.84949714
H       22.24284867     -13.97862936      -7.27460740       0.29484369       0.31185074      -0.01245814       0.55750763       1.06541932       1.06811690
H       22.45557668     -12.26962344      -6.52679692      -0.17067768      -0.10795217       0.15187418      -0.27833313       0.13112408       0.81977946
H       23.88585500     -13.25957055      -6.97997867      -0.30371986      -0.17080544      -0.09273521      -0.00699674       0.05654269       0.02762908
C       16.88914345       6.18697651      11.72031776       0.73419455       0.96629980      -0.50326333       0.67188317       2.52321815      -2.84234691
C       16.14707987       5.76368968      10.44003105      -0.96815225       1.50581745       1.08945439      -0.56372124      -1.18753219       0.82146704
O       15.43548501       4.69982794      10.60250334      -0.39821581      -0.34216467      -0.35272393       0.18185693       0.14339191      -0.30303496
O       35.41118262       6.45020951       9.36687777       0.87093390       0.28569136       0.21669127      -0.05505376      -0.21091297       0.31293035
H        3.49469822      17.10910080       8.12540743      -0.08683215      -0.22332611       0.11320216      -0.42678154      -0.44724742      -0.16030344
H       17.92109786       5.84733672      11.61371045       0.03140498       0.13504202      -0.23762651       0.16127501      -0.32194182       0.29453403
H       16.47922161       5.90107643      12.65684328      -0.01918422      -0.14153252       0.04021755      -0.72323358      -0.29371244       0.54520607
H       16.96719394       7.31266431      11.55641530      -0.25261333      -0.05785286      -0.25507608      -0.01806174      -1.16681683       0.96063256
C       14.76316602       0.35331872     -11.94253663       1.47693125      -0.48455274      -0.12625126       1.05062807      -0.96909052      -0.44708866
C       13.77264443      -0.58633032     -11.27663913       0.07355923      -0.52455147      -0.30297632      -0.27072012       2.90635896      -0.07545060
O       13.35661242       0.04299732     -10.13858222      -0.46422959      -0.27588994       1.55569947       0.90594965       0.30188572       0.34440145
O       13.26483726      17.57020537     -11.71363548       0.07499818       0.06158563       0.25885159      -0.54612291      -1.72043061      -0.35259840
H       14.99896644      26.02965111       8.55041566      -0.33928563      -0.16298080       0.16357132       0.49907020       0.04805174       0.50725794
H       14.66419190       0.42631038     -13.05005732       0.06074112       0.04010236      -0.07588131      -0.35093442       0.23268779       0.79055154
H       15.72386030      -0.19741013     -11.80459127      -0.26007827       0.02141966      -0.03730522      -0.04079846       0.52999878       0.12882508
H       14.83582311       1.31478514     -11.38665958      -0.01822694       0.04949159      -0.13818551      -0.10718980      -0.61954349      -0.52482915
C      -11.67358428      25.05628537      23.03337549      -0.62736295      -0.56906406      -0.27425628       0.71507496      -1.03513288       0.74408209
C        7.64612041      24.60049624      24.48301174      -0.70997895      -0.30887073      -0.37047623      -0.61828768       1.82833028      -3.45056295
O        6.81744828      25.29785055      25.19566071       0.22063507       1.34112129      -0.67062769      -1.07542276      -0.49846125       3.44606161
O      -10.62803537      23.82107618      24.76449594      -0.22242022      -1.43242446      -0.01174674       1.08781791      -1.47513223       1.47055352
H       17.31499698      10.81729368      13.94215774      -0.15683342      -0.16201914      -0.27590012       0.29650289       0.88328570      -0.55316079
H      -11.43616241      24.16842241      22.49748842       0.37987556       0.02066736       0.22849886      -0.15021217      -0.79801089      -1.19720733
H      -10.83665321      25.69672990      22.89453944      -0.16836684      -0.11808296      -0.02087641       0.84143084       1.09503889      -0.51591438
H      -12.58309257      25.53597969      22.74299727      -0.31048408      -0.21175918      -0.10496416      -0.77856886       0.20072372       0.04626176
C       24.67959318      28.34990802      13.18339316      -0.65722482      -0.25042240       0.64101864       2.09688902      -0.70098293       1.67893755
C       25.97296955      29.08849326      12.96911510      -0.57845255       0.02264565      -0.27521059      -0.43100250      -0.25844228       0.74840832
O       26.34356180      30.01767850      13.68951347      -0.48566232      -0.34387339       0.44122517       0.33565497      -0.25073138      -0.74961257
O       26.70862487      28.47913713      11.99657442       0.45308483      -1.40542510       0.69175022       0.00558543       0.48366034       0.30730772
H       27.64833874       9.68812421      12.02987299       0.09451314       0.05289536       0.07700376       0.41859692       0.05330810      -0.37725881
H       24.06916024      28.87867661      13.86187653       0.05984232      -0.02295273      -0.03520029      -1.02569723       1.00824082       0.65388477
H       24.99695555      27.44537978      13.80793344       0.00122165       0.00687083      -0.06866202      -0.59292537       0.49096486      -1.13090920
H       24.23126424      28.13983460      12.25727207      -0.06099273      -0.05604978       0.09761137      -0.90229690      -0.81061822      -1.28477561
C        0.93752495       9.25805907      18.15158271       0.29818752       0.23160075      -0.21920096      -0.62628269       0.83863819      -1.45279086
C        1.46829330       9.40715830      16.73184793      -0.17835317      -0.07351428      -0.72600951      -0.61269915      -0.75972843      -0.40431118
O        0.65209987       8.93913225      -3.32030183      -1.18599443       0.44741901       0.38103022      -0.20120275      -0.40369099      -0.69284713
O        2.57040223       9.90010742      -2.69341350       0.42588119       0.43558780       0.73936748       0.97636718       0.53612518       0.31208998
H        1.26986261      13.68907399      23.46947321       0.06240719      -0.22472466      -0.08592173       1.26822948      -0.08333288       0.24653962
H        1.72033952       8.90537464      18.78719609       0.31181162      -0.04224402       0.04374548       0.39609718      -0.63060659       0.76969707
H       -0.01140259       8.68322463      18.08341354       0.03702416       0.05617999       0.05453458       0.67296028       0.19891199       0.59007573
H        0.74323528      10.30124976      18.42434831       0.09412915      -0.02059802       0.00448295      -0.35211807      -0.02839954       0.41405314
C       14.98905963      22.56111803       2.37240491      -0.37478016       0.24297517       0.92652260       1.34890401      -0.11793256       1.01292396
C       14.92402001      22.04667816       3.77191256      -0.65538170       0.84760582       0.02852313       0.20414272      -1.58763075       0.29217017
O       15.40253863      20.79813902       4.01190901       1.04439694      -0.95308442      -0.20354789      -0.26264551       1.39957130      -0.59265029
O       14.42358722      22.78674739       4.62782272       0.18573719       0.18902076      -0.62897103      -0.12258780      -0.16967356       0.82210553
H        6.92623058      24.96893749      26.22620405       0.27230553       0.15675396      -0.19620912       0.07757008      -0.08040196      -0.53090805
H       14.18903864      22.20963053       1.80661552      -0.17830151      -0.12988674      -0.22834636      -2.08955288      -0.59544110      -0.96462530
H       15.82588793      22.07790737       1.88861822      -0.08255073      -0.12236603      -0.04813917       0.77401960       0.64860153      -0.40215331
H       14.92852522      23.63849096       2.46976762       0.25695826       0.13756083      -0.12422486       0.44845158       0.33495766      -0.65742272
C       20.18993079      -4.85672439      13.05480373       0.60759680      -0.07442719       1.53659351       1.63749528      -1.52857327      -1.12034976
C       21.40042285      -4.62895541      13.97252442       0.02727543      -0.68618618       0.20454541      -1.78741169      -0.14840746       0.33883286
O       22.22770971      13.46254793      14.05097080      -0.43877016       3.48838303      -0.66980810      -1.01527572      -0.04747117      -1.51479316
O       21.50493553      -3.63361554      14.68192523      -0.45349845       0.44702538       1.35080193       0.02005953      -0.00897196       0.25691351
H       42.15751683      -5.47407553      14.61284120      -0.17080693       0.00395805       0.14058423       1.04381132       0.07997128       1.01702464
H       20.56284657      14.32594049      11.98609926      -0.18882719       0.02387136       0.30948414      -0.30379096      -0.46240962       0.78704721
H       19.40325455      -4.14413570      13.03194845      -0.04386873       0.03214115       0.27297667      -0.51900733       1.11846685       0.64068109
H       19.75053333      -5.86363985      13.25758578      -0.00378317      -0.30868151      -0.31480266       0.39409280       0.43571210      -0.30346814
C       -1.78485417      18.67902950      -7.54197491       0.56659784      -0.72986369       0.42819329       1.07974553       1.08215511      -0.78101331
C       -2.00250556      18.88838366      -9.02509085       0.12876365       0.95142887      -0.99267782      -0.57858360      -1.80462945      -1.18561959
O       -2.21419514      19.92212367       9.51324109       0.18134977      -0.09709487      -1.24327203       0.42706102       0.07268596       0.73804003
O       -2.07765934      17.68633538      -9.80542655      -0.36424615      -1.22317926       0.02945419       0.41816187      -0.32860053       1.42980707
H       -1.91902548      16.81040952      -9.25821141       0.07939349       0.06507190      -0.34506531       0.09941246       1.86046207      -0.32612503
H       -2.66239995      18.24550894      -7.13278063      -0.02398143      -0.28568520       0.02056345      -0.77810121      -0.96541274       0.58844244
H       -1.63021434      19.62240852      12.13612822      -0.02307393       0.02371041      -0.12876397      -0.02654336       0.37026429      -0.23609653
H       -0.87299823      18.09591673      -7.37369404      -0.02494348      -0.34323583       0.12938589      -0.23443452      -0.39483404      -0.01459807
C       17.15147537      13.27107739      10.11628213       0.24267761       0.50238265      -0.77083421       0.54333329      -2.08683610       1.97711587
C       17.15179107      14.49546013      11.02268148       0.28234152       0.45938122      -0.01893341       0.95048845       0.66122484       0.53362578
O       16.27759884      14.44135787      11.97883078      -0.94281276      -0.22822102      -0.13860841      -0.40418148      -0.08121002       0.33967435
O       17.99649213      15.45109294      10.91783886      -0.67124794      -0.17542964      -0.11390012      -1.01044476      -0.79390216      -0.81579030
H       -3.45920209      15.58809898      -6.81013953      -0.24950610       0.06650649      -0.06802683      -0.03137669      -0.22667208      -0.60662627
H       17.20779117      12.31537275      10.81424786       0.14216195      -0.05777911       0.10039428       0.24205652       1.80873013      -1.11711895
H       18.00097585      13.21817504       9.44173758      -0.11651528      -0.31909444      -0.12428970       0.08265832       0.10860669      -0.20643717
H       16.20748920      13.07820155       9.62790471      -0.08455943       0.04172006       0.22497195      -0.40754253       0.35592756      -0.48622516
C       -0.57922159      -3.91407205       6.89903263      -0.48987754       0.71747893      -0.95253506       1.77329290      -0.83087897      -0.00225767
N        0.63828271      -2.96638467       7.00359379       0.72360285       0.22833291      -0.33642080      -0.93754327      -3.06992960       0.19626516
C        0.71153701      -1.74754837       6.42575199       1.14289465      -0.23557773       0.08647084       3.02281475       1.05797708       2.08845019
C        1.91932728      -1.19822323       6.97455994       0.00197748      -0.79309077      -0.15143336      -1.03402042       0.32791474      -1.24492836
N        2.54791148      -2.20090449       7.65087774       0.39229446       0.26762725       0.92820128       0.08030975      -0.09403226       0.79683679
C        1.73331563      -3.29477105       7.74983927       0.67111755       0.57653279      -0.55709997      -0.37518030       1.23103428      -0.22134773
H       -0.77768956      -4.19084322       5.75280123      -0.10172792      -0.03655465      -0.34993633       0.26537704       0.51223844       2.71502423
H       -1.32048387      -3.31058939       7.41301028       0.16634759      -0.03569803       0.08945178      -0.89978039      -0.28631735      -0.37525070
H       -0.31386427      -4.83923693       7.60699240      -0.06313763       0.20663744       0.10288462      -0.58196175       1.70118988      -1.82071841
H        0.09572133      -1.42733464       5.62904963       0.03833005       0.29144389       0.06326106      -0.66445178       0.30147600      -0.54935884
H        2.33122176      -0.17282066       7.02226475       0.01032744       0.11865786       0.33563704      -0.43675807      -0.61676151      -0.32913631
H        1.76833265      -4.07856709       8.53565005       0.23339768       0.15269117       0.05333541       0.14731511       0.31501266      -0.72350729
C       23.30922944      17.22589513      13.56849872       1.13062121      -0.06993571       0.24282620      -0.39190972      -1.61010218      -1.38543093
N       22.31560661      17.82551337      12.70563547      -0.77929117       0.48588289      -0.47159945       0.50240499       0.21853250       1.05867195
C       22.13089173      17.69285391      11.33735186       0.86113581      -1.83115771      -0.14650503      -0.27412683       0.27354264       1.80618250
C       21.27182815      18.69951091      11.06014486       0.17237293      -0.19192004      -0.36824110      -1.42252874       1.21509874      -1.32656574
N       20.92767317      19.43625809      12.17500849      -0.00868230      -0.74312328       0.07238720       0.23852313       0.12297931       0.21698594
C       21.59970602      18.87829357      13.18481938      -0.02809727       0.70801012       1.38529940      -0.49412981      -0.40106678      -0.40023822
H       23.00567750      -1.69991021      14.54038020      -0.12326830       0.10145523       0.36636838      -0.12419393       0.60559040       1.87063622
H       24.26192352      -1.53956754      13.31045835       0.05886007       0.07914501      -0.31434668       1.29294181       0.09074759      -0.00836785
H       23.19652885      16.12986106      13.53161722      -0.29881259       0.02094072       0.14481339       0.67968351       0.37286323      -0.40708721
H       22.39394143      16.80993009      10.81858542      -0.10475215       0.36861175      -0.07942327       0.46622136      -0.69100404      -0.47967988
H       20.78683560      18.91728705      10.11216741      -0.14705947       0.28929004       0.05960323       0.16082010       0.15456820       0.07214952
H       21.50515647      19.13846067      14.25897818      -0.50632928       0.17091190      -0.14936870       0.21126497      -0.30301064      -0.99713153
C       10.07733726       9.99373412      16.12343137       0.32165072      -0.84612302       1.07900075      -3.56721711       0.24569246      -0.52666336
N        9.65121970       8.57471252      16.29508146       0.67577301       0.86048413       0.60924533      -1.83811283       1.65112603      -3.25718069
C        8.69413658       7.88360925      15.48942435       0.13508053      -0.62174091      -0.05540328      -0.02653392      -0.17484164      -0.02997299
C        8.52854118       6.60059225      16.04554778       0.18397478       0.05562635       0.50477723      -0.06200254       1.46160686      -1.25776160
N        9.41076408       6.54130292      17.08190193       0.32864988      -1.52795233      -0.33744779       1.06739211      -0.26456225       1.59146774
C       10.08161313       7.74169486      17.18306554       0.61476210      -0.69134484       0.62925650       0.20826745      -2.81976080       1.24803376
H        9.11548806      10.59379475      15.67816423      -0.24803580      -0.40981900      -0.48999764       2.32931328      -1.15142000       1.41424072
H       10.83333170      10.06886635      15.40045755       0.12507142       0.22234254      -0.04879674       1.13424850      -0.17368346      -1.33401716
H       10.49271558      10.36466175      17.05230872       0.03474448      -0.13159423      -0.35767570      -0.43641779       0.22424074       0.45513391
H        8.42014329       8.22142365      14.48735809       0.02778821      -0.06921964       0.03465782       0.08545204       0.20007080       0.49700531
H        7.88165912       5.76512371      15.60690223       0.08797128       0.18764682       0.38754175       1.24417877       1.15444517       1.10830641
H       11.03166696       7.90688869      17.68587246      -0.04253384       0.18787876      -0.18197138      -0.35984299      -0.23386452       0.41152528
C       16.68959670      14.82293212      16.62351579       0.56521986      -0.32455348      -0.29262014       1.25813389       1.94939101      -0.55174398
N       16.72442557      13.44962725      16.14361296       1.34483267      -0.96829325      -0.06827586      -0.32147387      -0.06168890      -1.19357908
C       16.48953304      12.32531827      16.89032090       0.54902318       0.09332557       0.78992425      -0.49519020      -1.33836579      -0.25603405
C       16.92254758      11.22370681      16.11349297       1.22852708       0.59082094       0.75639100       0.90034366       0.46646333       1.36616766
N       17.49100502      11.73355487      14.97585855      -0.43770761       0.26788132      -0.68444579      -1.15689492      -0.47493607      -0.01391992
C       17.24144428      13.03999268      14.91323285      -0.05355763       0.60872428      -1.20712599       1.39719653       0.62242103       1.27582073
H       17.06004544      15.47734723      15.74932027      -0.06431034      -0.13860792       0.22797826      -0.67089921      -0.89348519       1.15010428
H       17.49048407      14.97717000      17.40702506      -0.18104119       0.15827510       0.01180668      -0.87834036      -0.21054693      -0.46060792
H       15.71030856      15.26455293      16.97014370      -0.00931581       0.02466701      -0.12646550       0.73415053      -0.98505396      -0.39513448
H       15.84022721      12.40079212      17.75969898       0.07746572       0.08455433       0.07895603       0.18380830      -0.19893128      -0.00966352
H       17.03142783      10.11971756      16.29616334      -0.25004395       0.19192465      -0.22486930      -0.40178257       1.35306168       0.02074215
H       17.75777120      13.72439128      14.21816769      -0.17462942      -0.26871470       0.24230524      -0.78953701      -0.36030084       0.33165264
C        2.43669035       7.05281316       3.64598566       1.31187994       0.61636390       1.75738216      -0.24724230      -0.18028596      -0.98752600
N        2.47239615       7.11444530       5.11413310       0.03261689       0.14076308       0.87166210       1.31415713      -1.44530153      -1.31203771
C        2.12318258       8.24302352       5.74497845      -0.46291699       1.15852087       0.27376289      -0.47352803       1.14448929       0.83438843
C        2.66961100       8.17603818       7.00120271       0.07499845       0.26427165       1.19352910      -0.55768675       2.23760676       1.27946079
N        3.34319708       6.98352865       7.11399311       0.59253023       1.01746614      -0.07169903      -0.14000994       0.36791369       2.50017166
C        3.19170668       6.32178931       5.99014590      -0.68378366      -0.38533459      -0.05733287      -0.86722451       0.89500439      -0.83544672
H        2.86595766       6.12170976       3.27112759       0.05634948       0.32970488       0.12907723       0.08100674      -0.00484765       0.29246250
H        2.93178595       7.89673531       3.09368710      -0.05547685       0.18554180      -0.00369093      -0.24138232      -0.36055505       0.97224069
H        1.38280738       7.04814762       3.34670778       0.28942572      -0.01465421       0.28952358       0.07199556       0.12982784      -0.10431269
H        1.46313155       8.96656056       5.27540610       0.24422814       0.03174735       0.02378873       0.15647212       0.06740159       0.12042895
H        2.49818203       8.98559768       7.79690897       0.12707940       0.12839184      -0.01987397       0.63102949      -1.58874738      -0.99958563
H        3.30828457       5.27763744       6.02626317       0.02411643      -0.29119534      -0.04552785       0.23605654      -1.15291584      -0.95838368
C       13.55770106       3.14844740      17.44936583       0.09559578      -0.61565427       0.16271733       1.34559488      -0.13195318      -1.09602928