640
Lattice="19.152215 0.0 0.0 0.0 19.152215 0.0 0.0 0.0 19.152215" Properties=species:S:1:pos:R:3:momenta:R:3:forces:R:3 energy=-80129.7109375 stress="-0.016528213396668434 0.000384430488338694 0.0003686129639390856 0.000384430488338694 -0.02115710824728012 0.0017369766719639301 0.0003686129639390856 0.0017369766719639301 -0.021845130249857903" pbc="T T T"
C       12.71901546      -4.85055680      12.67549211      -0.05576267      -0.41995082      -0.21853715      -1.75477564       0.41775280      -0.23438066
C       13.99733444      -5.55828547      13.06223576      -0.14948776      -0.08446319       0.39013856      -0.77410650      -0.58855247       0.42829961
O       15.18512173      -4.97348967      12.87215889       0.69526700      -0.37870939       1.26720529      -0.64213550      -0.96362591       0.49304691
O       13.87515780      -6.68588196      13.60453962      -0.39626067       1.04083636       0.41755813       0.95541865       0.88560903      -0.22090736
H       16.80800187     -13.28317482      29.17753284      -0.37312440      -0.06929883      -0.02709486       0.46299115      -0.54211563       1.94037151
H       12.22409269      -4.35784770      13.53926449       0.04736774      -0.11012991      -0.24783740       0.20028315      -0.54855883       0.17654826
H       11.91120517      -5.52030754      12.22765607      -0.05431974      -0.35901085      -0.08576966       1.32364988       0.40837353       0.59051663
H       12.81164688      -3.99868105      12.01000481      -0.00624698       0.01477945      -0.09138321       0.62948692      -0.03573970      -0.44741154
C        2.54597809      19.08052047      17.17212074      -0.57187854       0.17211625      -0.94284644       0.80476856      -1.43843031       0.44984329
C        2.12777200      18.68144896      18.53973341       0.04634274      -0.69260206      -0.23667110      -0.32049114      -0.95000482       2.44306874
O        1.04004932      19.04145730      19.02606087       0.67328018      -0.38596995       0.12272055       0.96848065      -0.36226299      -0.59542769
O        2.98249067      17.89466498      19.28236598       0.63330492       0.81763455      -0.30260844      -0.13777369       0.55192369      -1.66866064
H       35.49662645      26.05939230       5.24828160       0.15757022       0.13190941      -0.07268294       0.16043109       0.46781766       0.18968329
H        3.57442615      18.67918130      16.97211390       0.08644748       0.07754097       0.26917209      -0.86473501       1.02835059      -0.22726570
H        2.33574959      20.13009720      17.18834100       0.27489144      -0.22363374       0.22546130       0.45709002       0.91243482      -0.78044808
H        1.84356880      18.55702139      16.53708538       0.13689861      -0.06421267       0.14960897      -0.28198645      -0.00206934      -0.69052339
C       14.27031307     -14.10317101       7.93971755      -0.34556710       0.63529880      -0.66290478      -0.06555587      -0.18252498      -0.12581497
C       14.78968484     -12.75585211       8.45056664      -0.23409903       0.00495987       0.50058546      -0.28960472      -0.97806430      -0.42616618
O       13.88789065     -11.94183166       8.87802626      -0.15095959       0.23062101       0.85945626       0.34314543       0.58081567       0.87779993
O       16.03399887     -12.55723817       8.44073755       0.46323507      -0.75673951      -0.02645162       0.06433487      -0.04642260       0.59471583
H       11.83368566     -13.17219369       4.66352977      -0.10280212       0.03101782      -0.08224690      -0.25198516       0.58353108       0.22768342
H       13.19105964     -14.29252214       8.14197143      -0.19364883      -0.05583289       0.05363250       0.67598975       0.30256540      -0.29148188
H       14.87560862     -14.90311131       8.36395987       0.14885058       0.03358404       0.04123781       0.00905551      -0.05265995       0.53984332
H       14.52780310     -14.18698172       6.87471045       0.16069416       0.01019371      -0.13663891      -0.47638503       0.21658182      -0.14691128
C       13.55115446      -2.79101148     -11.57743831       1.11607610      -0.21607236      -0.35115328      -0.21441284       0.87287325       0.91915643
C       13.66509450      -3.00069868     -13.06570567       0.03382827      -1.13116383       0.41731765       0.07919677      -0.19712538      -0.74059129
O       13.00202238      -2.31749213     -13.85696644       0.13923043      -0.79331371      -0.23728916       0.28394866      -0.04157799      -0.20801632
O       14.52187370      -3.98878259     -13.47669155       0.58580318      -0.90794124      -0.19239704      -0.46387523       0.81442732       0.95689726
H        9.66714189       0.21985708     -11.07579955      -0.01392015       0.08765972       0.49611295       0.00014836      -0.71373218      -0.93771833
H       14.30304195      -2.02142216     -11.20146011      -0.01476260      -0.13110346       0.13300170      -0.50093383      -1.00136316      -0.48922202
H       13.65964208     -22.89079212     -11.02152641      -0.02522950      -0.28255603       0.03365558       0.06920081       0.37815243      -0.20834598
H       12.54224822     -21.46783557     -11.31400910       0.40840301       0.07048604       0.31043454       1.19082880      -0.72942191      -0.62312210
C       12.54139377      42.98366264       1.01008161      -0.67182581       0.45631865      -0.61242842       0.15575224      -0.13560516      -0.73084819
C       13.98960400      42.54080277       0.94961256      -0.89883309      -0.13061441       0.20615592       0.12767088      -0.05255115       0.61298561
O       14.55181955      42.35186711       2.04366714      -0.77230578       0.45397006      -0.34575932       0.90020621       0.00684686      -0.19948465
O       14.53815114      42.30086419      -0.26390819      -0.14078162       1.41203937       0.62616847       0.67239618       0.87125814       1.25648379
H        3.86333533      17.69605593      18.67646316      -0.22323415      -0.02950143       0.08782177      -0.75731301       0.20302926       0.83203286
H       12.23575263      43.09093665      -0.02083666      -0.02286889      -0.24681765      -0.13619389      -0.64996755       0.46991053      -0.35719159
H       12.28036013      43.85101912       1.67075599       0.02798064      -0.01872254       0.07564867       0.69512761      -0.55183345      -0.56994873
H       12.01324841      42.11480779       1.39596240      -0.18258824      -0.27648302       0.16061666      -0.44658521      -0.24173847       0.22811478
C       18.49782767      -0.92499545      14.71984691      -0.88528295       0.22223848       0.51690193      -0.24647233      -2.09879351      -0.20884830
C       18.82071976       0.21096006      13.79690132      -0.59919063      -1.09548817       0.90183569      -2.11920643       0.75608057      -1.12430286
O       17.97065336       1.11304701      13.65252864       1.21255897      -0.20516299      -1.01107818       0.56946421      -0.22344679       0.43751413
O       19.85105299       0.19846233      12.96045628       0.18833149      -0.20951645      -1.21486853       0.80185097      -0.99555945       0.87925410
H       21.32054213       1.58556061       5.56945964       0.42809998      -0.19431397       0.30340679       0.24381636      -0.29557207      -0.02333546
H       17.66867429      -0.61429467      15.33599457       0.00099308      -0.07922244      -0.05298434       0.20517609       0.80216426       1.10210299
H       19.34643470      -1.44111178      15.25777942      -0.14789930      -0.09592000       0.02220378      -0.86110640       0.72475773      -0.57121348
H       17.85809059      -1.73816674      14.21958373       0.27223799       0.33643794      -0.23269366       1.43591404       0.63169259      -0.28318214
C       21.11852797     -12.05148816     -10.53260558      -0.06845460       0.27076657      -0.33159877      -0.81345344      -2.40851927       0.82372952
C       21.01154700     -12.12207630     -12.04981889       1.03976546      -0.05994667       0.43269283      -0.50328732       0.08808349       1.11512828
O       20.42592910     -11.08455830     -12.62610769       0.34854844       0.56985814      -0.60751794       0.33808517      -0.07029927      -0.37930948
O       21.40470402     -13.12274232     -12.65931544      -0.32723222       0.92967016       1.71733136       0.18677402      -0.10935187      -0.48683339
H        0.71923684      -9.26540721      -3.10743976       0.20262088       0.03326237      -0.09521276      -0.32735464      -0.04803091      -1.22178710
H       21.59016313     -11.17365314     -10.17059642       0.14710226      -0.30725752       0.23364499       0.40551257       1.19631612       0.14763397
H       21.71471069     -12.92478736     -10.14743276      -0.39094619       0.03756767      -0.15060622      -0.40709415       0.61421776      -0.47854775
H       20.10968976     -12.17601044      -9.99856668       0.24909629      -0.01483495      -0.09496972       1.03082275       0.38481569      -0.95385587
C       16.70635754       4.28011357      12.99514182      -0.63722782       0.87366822       0.20835138       0.93038565       2.59946632      -0.77526379
C       16.34080164       4.55018450      11.50717942      -0.94755863       0.47288140       0.23978887       3.54483891       2.67469692       2.24969101
O       17.15370098       5.59801863      10.99299491       0.19623937      -0.49861937       1.79413856      -1.18495762       0.01308084      -1.24984181
O       34.73851703       3.97547916      10.81744562       0.14759624      -0.40959382      -0.08817983      -2.94946051      -2.03334761      -1.89844084
H        1.62885868      16.34774849       7.78886059       0.06155617      -0.02447888       0.14332279       0.92932451       0.19988029       0.73523897
H       16.89486577       3.26140069      13.17127642       0.07459217       0.37122286       0.34773749       0.43983841      -1.67844439      -0.05034774
H       15.93971194       4.55950772      13.73598178       0.05969839       0.25312110      -0.19493388      -0.09710075       0.31579462      -0.38511413
H       17.66129049       4.87493328      13.20708876       0.22416180      -0.11007646      -0.23223897      -1.28423631      -0.73329121      -0.00327326
C        7.02246112       1.88166856     -11.61552121      -1.04346497       1.04325001      -0.60161149       1.55729234      -0.59750152       0.31135458
C        8.09522819       1.09639554     -10.90872804       1.81073322      -0.32829088       0.58179313      -1.02311265      -0.13664141       1.21075058
O        8.84780987       0.29932574     -11.66809125       0.24531529       0.98665443      -0.23288783       0.52657616       0.43365011       0.56618494
O        8.26831025      20.31922730      -9.67049097       0.71001490      -0.77491480      -0.62627729       0.04198563       0.10525751      -1.01255512
H       14.50322081      26.96933632      10.04037652      -0.03966190      -0.16924797      -0.28326672       0.02484526       0.36582792       0.37153864
H        7.42382250       2.88492357     -11.54479190      -0.17856058       0.12911503       0.07997232      -0.45554444       0.81714702      -0.24530450
H        6.11444094       1.79131262     -11.06791766      -0.15014370      -0.01996051       0.02030775      -0.96811712       0.09549926       0.55210954
H        6.88476950       1.58173425     -12.63627229       0.09709490       0.08407082       0.08369165      -0.02482045      -0.15543771      -0.69901621
C      -13.85165140      23.99817037      24.52887954       0.11181859      -0.91349777       0.25170437       0.29650599       0.20062822       1.28771520
C        6.06854811      24.59012123      25.70027309      -0.20480772       0.02619751      -1.04846421       0.22858512      -0.36201048       1.07471287
O        6.87626062      25.56698009      25.35743635       0.45636782       0.43304706       0.83382292       0.57156461       0.41707373      -0.01473522
O      -13.09600662      24.17632265      26.88510297      -1.09917874      -1.05428613       0.71266393      -0.58142543      -0.14436282      -0.62622762
H       15.60948438      10.13246909      16.47304456       0.04382372      -0.15369654       0.12428899       0.40209490       0.08652711       0.36151412
H      -14.88453814      24.32883019      24.53193317      -0.05380272      -0.09701767      -0.35191660      -0.33849502       0.04586150       0.19753727
H      -13.78492814      22.91769628      24.63261025      -0.04240742      -0.09749553       0.00064926      -0.18107685      -0.25858498      -0.28346801
H      -13.37276792      24.37794168      23.65009774       0.07869085       0.19715137       0.16677398       0.34394336      -0.05429421      -0.82975823
C       24.36513330      26.52241705      10.30772439       0.30079590       0.34540597       1.30128550      -1.13767385      -0.60844702      -2.14221334
C       25.27458770      26.67513540      11.44409461      -0.00363006      -0.20940211       0.21466353       1.14679313       2.20684648       0.05818379
O       25.45917889      25.89012927      12.35287799       0.07620855      -0.54768230       0.75603451       0.00285888      -0.79260671       0.68912786
O       25.89305142      27.91184929      11.36736775       0.75307147       0.16494956       0.37522038      -0.58574754      -0.17282343      -0.60224080
H       26.51637703       9.05416319      12.09717123       0.05239766      -0.18664641      -0.08394874       0.36460206      -0.70771337       0.45681089
H       24.73007542      25.75763624       9.55213445      -0.12133342      -0.22890976       0.16108314       0.15452927       0.84277242       0.62343025
H       24.12800017      27.49846788       9.76357295       0.34204373      -0.07628702       0.00117968       0.26983407      -1.14306104       0.77831244
H       23.44971509      26.00660398      10.65524019      -0.16676210       0.11866111       0.21117361      -0.04689208       0.41736400       0.08205616
C        2.15524487       9.83717465      18.91454342      -1.00129879       0.29195358       1.14650642       2.97961044       0.02228380       0.29861331
C        1.66621462       9.36657487      17.61305593      -0.69949326       0.69846153      -0.08995053       0.31807917      -1.20447946       0.36401844
O        0.98982007      10.28457162      -2.22001709       0.92545784      -1.82653953      -1.11607116       0.41849762       0.01798534       0.50191474
O        1.87701232       8.18717738      -1.87861410       0.39173954      -0.49403851      -0.26660137      -0.46039581       0.53960514      -0.64398193
H        1.98225114      12.09966096      22.99338818      -0.31917117       0.07903262       0.23748364       0.20887460      -0.16325098      -0.92055291
H        1.73929732      10.79515524      19.20744414       0.15057170      -0.31786070       0.01695677       0.12573920       0.06899978       0.27218920
H        3.34997027       9.91179266      18.81867359       0.00415620      -0.24671500       0.05096442      -2.42206430       0.08988482       0.39469483
H        1.98416944       9.01708392      19.61858018       0.21076189      -0.07315682      -0.14632835       0.15161803       0.48551947       0.19424510
C       17.55186442      21.43428146       8.88948045      -0.15674523       0.37696607      -0.16026133      -0.94342744       0.54702115       0.48587972
C       17.79295038      20.14829283       8.16259016      -0.91889979      -0.77407198       0.16187781      -1.31512284       0.80749130      -0.46513587
O       16.95861845      20.10085978       7.06145217       0.64085709       1.74994999      -1.00435998       0.06430507       0.80968368       0.33233112
O       18.52967839      19.24859059       8.45536665       0.46401816       0.39267304       0.12064930       1.42854702      -1.15867579       0.56130654
H        7.59802483      25.81521794      26.19371678      -0.00314124       0.20040672      -0.14616840      -0.66804409       0.48644760      -0.80252892
H       16.47722854      21.35333324       9.23337751      -0.01610946      -0.10830394       0.01333589       0.84938222       0.36956474      -0.18470407
H       17.59596228      22.23111999       8.10848148      -0.21837964      -0.18434044      -0.20695724       0.03904564      -0.17620541       0.86148798
H       18.14776275      21.68743578       9.81233939      -0.15948494      -0.42821908      -0.01186378      -0.11836045      -0.59351659      -1.12918282
C       23.68160898      -7.50756875      12.46446757      -0.88460259       0.39519603      -0.37345185       1.41278577       0.66507524      -0.21597263
C       24.72657368      -6.47906567      12.90183466      -0.13047606       0.27484906      -0.18815443       0.77402830       0.56307828       0.70794559
O       24.61393941      12.98372529      14.27337809       0.31659160      -0.55464983       0.53402808       0.06077147      -0.35284495      -2.19179106
O       25.59411267      -5.97979736      12.16307555      -0.41345695       0.02371848       0.83870540      -0.95102113      -0.32506993       0.97065389
H       44.59456929      -5.63236618      14.61424483       0.27426039       0.03878182      -0.21218172      -0.28456724      -0.58480310       0.23064922
H       23.75028551      11.43694583      11.37057839       0.07832787       0.13727238      -0.21977278       0.19196686      -0.16421065       0.88913453
H       22.76603189      -7.00914317      12.67172376       0.18934304      -0.21235994       0.13212882      -1.41497374       0.27219391       0.22286534
H       23.79533171      -8.36535612      13.13590114       0.09705308       0.00033664      -0.19940384      -0.14760523      -0.24879579      -0.34711519
C       -2.83178075      17.99612891      -8.46286427       0.27837701       0.36413598       0.68366278       0.28019494      -0.38376915       0.35295027
C       -2.93897725      16.51218204      -8.02385232       0.24529730       0.01173360       0.60304803      -0.57666403      -0.67281723      -2.26920843
O       -4.14307586      16.14749590      11.46963702       0.57081633       1.24671638      -0.36147117       1.28376865       0.54832339       0.31312382
O       -1.98337507      15.67190912      -8.26541074      -1.02516038      -1.71676991       0.73752246      -0.53857106       1.03274190       0.51309782
H       -1.01977618      14.93352144      -7.29783395       0.16902623      -0.28331407      -0.16002219      -0.02044389       0.31826857       0.46077535
H       -2.88057653      18.54545042      -7.50334857      -0.18721143       0.15903588       0.05177373       0.39169073       0.35091251      -0.41295797
H       -3.72330597      18.33185138      10.12454670       0.15410184       0.20842024      -0.07249236       0.24376400      -0.59904987       0.38676834
H       -1.93656559      18.22539121      -9.09389064      -0.17860642       0.42336494       0.36624085      -0.39598686      -0.20072813       0.85267198
C       20.25217013      13.98528257      11.00382081      -0.12252295       0.89331067       0.65805050      -1.99607837      -2.37071276       1.44410419
C       19.72292790      13.90825652      12.45615369      -0.05357828       0.91117392       0.26178232       2.35403419      -1.42813969      -0.12453252
O       18.64481655      14.63841477      12.70530819      -0.81842145      -1.04374789      -1.13390966      -0.40239215      -0.20468497       0.31155491
O       20.31716177      13.22879091      13.33411444      -0.90963659       0.69234577      -0.13873049      -1.25437164       1.21452987      -1.03120899
H       -4.02126499      15.05082795      -6.93014306      -0.06575893      -0.01153286      -0.06579784      -0.29966426       0.20076710      -0.07415682
H       19.92807417      14.92363674      10.71243243       0.20501198      -0.06564188       0.19490873      -0.23711218       2.12880278      -1.36056364
H       19.65027992      13.21938650      10.45058390       0.27884301      -0.05816991       0.07593684       0.33716321       0.47203779       0.06427546
H       21.28202413      13.77745219      10.83445647      -0.06030467      -0.00298458       0.00322839       0.99773479       0.05716521       0.17686805
C       -2.29583210      -5.21426180       7.61173490      -1.51386598       0.09164880      -0.40867300      -1.92913961       2.74945784      -0.02849868
N       -1.13398261      -4.46394622       7.24456575      -0.05800603      -0.08367438      -0.60157143       2.38893032      -0.04060650       0.85278243
C       -0.47844751      -4.60467628       6.03274923       0.69147361       0.37316078      -0.11206512      -0.82933986       0.84523219      -0.10885876
C        0.69124496      -3.92787849       6.14978031      -0.37863207      -0.10975589       0.32676462       2.45147419       0.27253592      -0.96688217
N        0.81483964      -3.40019908       7.41919899      -0.39081128      -0.32501189       0.22995514      -2.24897456      -1.38885462      -0.58539206
C       -0.29242225      -3.76692422       8.10667600       0.93592151       0.67791754       0.03714819      -0.58657533       0.49993160      -1.18363142
H       -3.18838118      -4.53875554       7.40243986      -0.15707472       0.36570447      -0.05585938       0.60303742      -1.24665463      -0.05065611
H       -2.32031516      -5.35546441       8.65831702      -0.06267893       0.04913092       0.10832773       0.30577129      -0.13633214       1.40561295
H       -2.36532296      -6.15855068       7.14955106       0.08624695       0.14989848      -0.18276026       0.07833706      -1.12736928      -0.99564672
H       -1.00111064      -4.91367492       5.13368665      -0.22024584      -0.13489676       0.00832576       0.16123402      -0.33654815       0.23856971
H        1.54418803      -3.84108479       5.42294649      -0.20221282       0.82013162      -0.09973825      -1.00180912      -0.08911207       0.83553696
H       -0.58709033      -3.31680108       9.05363508      -0.19797960      -0.32877411       0.18630956      -0.09055854      -0.35676724      -0.00813383
C       25.37368956      16.78702979      13.96858190      -0.24034994       1.19205353       0.51288693      -1.03331327      -0.82058412      -1.18195009
N       23.88904950      17.02344555      14.06778989      -0.29374248       0.63673915      -0.03997628       0.01436472      -1.55796838      -0.72095698
C       23.08196556      15.88970520      14.14056356       0.65801019      -0.55852096      -0.48628999      -1.03892934       0.66078335      -0.55351800
C       21.81417054      16.24605507      13.70438773       0.18967404       0.37922008       0.55118070       0.69279385       0.38831091       0.94764090
N       21.77576057      17.62642057      13.43121521       0.23818108       0.09416244       0.51558931       1.18773925      -1.63845205      -0.18259297
C       23.06310116      17.95065397      13.54615599       0.62502608      -0.11948351       0.53389748       0.65783352       3.71518946      -0.16647625
H       25.91651138      -1.65830908      13.40323675      -0.00686910      -0.28942286      -0.02309198       0.01340858       1.58561683      -1.36710119
H       25.50451723      -3.32977432      13.34482571      -0.00981984      -0.15156328       0.08134770       0.02391034       1.06785321       1.70252037
H       25.84547056      16.94507539      14.92185886       0.18117779      -0.00000369      -0.37118750       0.13090271      -1.04410911       0.93628031
H       23.56660308      14.96234444      14.25699150      -0.00405519       0.18222377       0.00867104       0.15389761      -1.06835651       0.34197396
H       20.95700516      15.63454153      13.56436632       0.07217897      -0.25217196       0.12141080      -0.44614995      -0.35062081      -0.04114298
H       23.46637539      18.93521019      13.23892496       0.17545045      -0.55441584      -0.24026585      -0.18962938      -0.51421577       0.21272445
C       11.44213419       8.13643223      19.42868959      -0.62608704       0.71195625      -0.83819597      -1.67189646      -2.95465064      -1.98815227
N       11.44953722       9.52910362      19.17250863      -0.25578097      -0.64734117       0.74864382       0.70373333       1.83625221      -0.83883083
C       11.03015229      10.55343365      20.02569529       1.70224841      -1.49485091      -0.19354633      -0.55518770      -1.76272500       1.20953441
C       11.49293447      11.71922406      19.54311803      -0.26918959      -0.24164090       0.43980712       0.13849655       0.90226954      -1.20099390
N       12.11157072      11.54275183      18.33076579      -0.78932581      -0.11298998      -0.42218882       0.76595402      -2.84207344      -0.86141419
C       12.11384009      10.15172760      18.15275030       0.87368093       0.02562744      -0.17655462       0.47383684       1.98487031      -0.88675219
H       12.43663783       7.66595843      19.52418882       0.02193157      -0.20203138       0.15712716      -0.32332927       0.47717357       0.25984848
H       10.86065536       7.47996406      18.60487220      -0.13521225       0.41716846      -0.20906603       1.33729935       1.73041511       1.21520627
H       10.78943904       7.98507098      20.26793017      -0.02330110       0.10036842       0.01361363       0.12517767      -0.28760466       0.99976850
H       10.41804916      10.31699164      20.88096130      -0.08138200      -0.15122610      -0.04350180       0.05096006      -0.09136569       0.15871590
H       11.38932842      12.72343369      19.90919819      -0.13577430      -0.03233683      -0.22257199      -0.37326640       0.02798831       0.39122951
H       12.62661526       9.59987225      17.30149932       0.37778002      -0.11521062      -0.09953769      -0.76652253       0.80517101       1.36672819
C       17.26281615      14.35754106      15.88272162       0.37896214       0.54338731      -0.73078307      -1.99875200      -0.32502258      -0.32510635
N       16.95657703      13.08473883      16.54916696       1.36946113       1.94660269      -1.10610385       0.61015213      -0.46560919       0.13683629
C       17.89474184      12.38540046      17.32678810       0.52415321       0.65045527      -0.44212217      -0.77690613      -1.46369791      -0.39542371
C       17.51522078      11.02116907      17.27096760      -0.02722952      -0.35422461      -1.75041873      -0.42708004       1.20316577       0.69789404
N       16.28477911      10.98862651      16.64654090      -0.32387104       1.54697278      -0.55192486       0.33935058       0.68689668      -0.50634938
C       16.02331221      12.21975601      16.16093979      -0.02298787       0.30073187      -1.36575261      -2.02769756      -0.82046521      -1.94613767
H       16.44068085      15.10679443      15.98904305      -0.11179433      -0.21252443       0.04077272       0.27733666      -0.66024053      -0.34709918
H       17.59785920      14.17730414      14.85962009       0.19213023      -0.06816730      -0.19986588      -0.26827580       0.11509766      -0.27467796
H       18.05825316      14.70740163      16.42851603      -0.16305651       0.04339652      -0.01188462       2.22876978       1.30094373       1.17900443
H       18.58709620      12.95248354      17.93251021      -0.09799442      -0.01484792      -0.09686796       0.14616051      -0.24951652      -0.05890560
H       17.91890067      10.06119373      17.60849089       0.14915913       0.07532618       0.09490727       0.15851110       0.83457649       0.19155380
H       15.32312692      12.34409001      15.26896031      -0.01516585       0.18069322       0.35209264       0.64196670       0.21041772       1.37905419
C        1.22083632       5.21742476       1.27205254      -0.91544011      -0.13874275      -0.08213647      -1.03395295      -0.65154803       1.31798792
N        1.09124996       6.33511091       2.18411608      -0.95844741       2.03566906       0.10263066       0.56928390       1.43892217       0.99426240
C        0.76546700       7.66505053       1.90735342       0.53001252       0.03619819       1.08546631      -0.94974101      -0.66277218      -1.50995421
C        0.89060447       8.34119708       3.06457909      -0.02863031      -0.98994810      -0.56246915       0.64218163       0.47474307       1.28832650
N        1.44962799       7.52969034       4.04201214       0.06803988      -0.84225391      -0.38825375      -0.74712795      -1.09097052      -2.84613276
C        1.50316728       6.31165986       3.45388179       0.43397295      -0.54598385      -1.41666891       0.73744535      -1.12453985       1.69260049
H        2.17348676       5.28864012       0.82034765      -0.16921547      -0.38634451      -0.30599954       0.90285438       0.18198398      -1.34406865
H        0.31340988       5.21137466       0.68193795       0.19399508      -0.28452588       0.41757953       0.18507645      -0.26069242      -0.84923756
H        1.25904118       4.29276159       1.87982313       0.00826936      -0.05719253      -0.01888462      -0.19812578       0.43427545      -0.08366582
H        0.41770100       7.94903504       0.90579228      -0.09647906      -0.08739832      -0.09139322       0.05063364      -0.01750125       0.68862635
H        0.50859173       9.24853807       3.43786006       0.28862662       0.15914346      -0.25468301      -0.42260888       1.32985353      -0.29107502
H        1.79425000       5.37458818       3.92731942      -0.21447480      -0.01411440      -0.13397601       0.14384800       0.20116711       0.17597520
C        8.83775427       6.27819190      16.03492630       1.98498701      -1.41927006      -0.17886855      -0.90269303      -0.69771874      -0.01741213
N        9.46714511       5.27443254      16.93736234      -0.29187510       0.29131147      -0.85839207       0.59858090      -0.94962347      -1.54614317