640
Lattice="19.152215 0.0 0.0 0.0 19.152215 0.0 0.0 0.0 19.152215" Properties=species:S:1:pos:R:3:momenta:R:3:forces:R:3 energy=-80130.203125 stress="-0.01903325505554676 -0.0014018405927345157 -4.639020062313648e-06 -0.0014018405927345157 -0.02110210433602333 -0.00027534435503184795 -4.639020062313648e-06 -0.00027534435503184795 -0.021067915484309196" pbc="T T T"
C       14.50688239      -7.09383623      16.14229286       0.45267567      -0.39808864      -1.16206939      -0.49697185       0.25149453      -1.07661855
C       15.78511350      -7.30949029      16.95967655      -0.63601111       0.36294063       0.37215693       0.77557617       0.39690030      -1.23908436
O       16.97800544      -7.29819127      16.26929569      -1.37067358      -0.37494403      -0.03623327      -1.18000042      -0.48208332       0.43200576
O       15.86159183      -7.43512079      18.17213587       0.14300842       0.04492520      -0.69493696      -0.39792967      -0.14074889       0.83939493
H       13.67768508     -11.63785529      29.88017690      -0.03952837       0.18157476      -0.43943485       1.01783359      -0.77204174      -0.25316727
H       13.46469521      -7.41116370      16.52000125       0.12949975      -0.07545751      -0.06758566       1.96460247       0.40613467      -0.03871498
H       14.66058574      -7.60410043      15.15852788       0.20191356       0.40871136      -0.23000263      -0.16046964      -0.06838147       0.57776409
H       14.47865820      -6.01758347      15.78734564       0.05543598      -0.17957296      -0.10112226       0.01133390      -0.69568843       0.75875354
C       -1.57489985      17.98169684      20.81023171       0.60094925       0.37384243      -0.85680732       0.88542831      -1.16657209      -0.10175297
C       -2.23113221      16.66123279      21.20328670      -0.46804328      -0.33518097       0.64480652       0.14733207       1.95988154      -0.81347126
O       -2.31995802      15.66424361      20.53635666      -0.36506785      -0.22432777      -0.12798584       0.46254754      -1.90355420      -1.69690180
O       -2.88000297      16.70285835      22.32977304      -0.89662760      -0.83681827       0.34046366      -0.91241992      -2.32345843       0.38354540
H       32.58608253      21.56311970       9.32580214       0.21847635      -0.23208366      -0.13315482       0.54118574       0.52134264       0.26138568
H       -0.90824690      17.81541881      19.92824677       0.04869129      -0.00574466      -0.01180746      -0.75584376       0.29314032       0.32536072
H       -0.90427670      18.21701029      21.64757730      -0.05016904       0.21019881       0.11580215      -0.08629763       0.51278424       0.04803454
H       -2.37030672      18.72829823      20.68177035       0.15252041      -0.14779959      -0.06815295       0.38731992       0.21353967      -0.07267690
C       15.40939939     -13.50530723       8.46892393       0.37792117      -1.21099537      -0.02512298       0.10128285      -1.34528983       0.45746630
C       15.05989019     -13.15784226       9.91463248       0.44768449      -0.05363423       0.26079105       0.33147961       1.72498465      -0.37482381
O       15.85594506     -13.37452479      10.83729429       0.30900453       0.45355837      -0.92859041      -0.47024369       0.11434081       0.18283454
O       13.93455281     -12.41584547       9.97648588      -0.77036715      -0.57181770       0.32324601      -0.48695964       0.13755845       0.16487944
H        9.78304907     -11.48379889       2.25241633      -0.07573645       0.00045898       0.30499472      -0.34647304       0.35358047       0.26517853
H       16.51123155     -13.46407128       8.34676595      -0.05821639      -0.15881946      -0.25422762      -0.56507790       0.10493232      -0.03909601
H       14.85740476     -12.92109611       7.73969108      -0.13699603       0.09694193       0.02732852       0.03659751       0.38235772      -0.12227090
H       15.11608041     -14.56891799       8.30523482      -0.31071069       0.29058382       0.00791367       0.22035150       0.42443985       0.07805584
C       21.48940572      -5.89509124     -10.97561806       0.08899199       0.72945768      -0.02964448       1.16538620      -0.30177221      -1.69804192
C       20.68033936      -4.64255516     -10.81321357      -0.42312677      -0.21613914       0.09249565       0.40765947       0.97830504      -0.63309270
O       20.49645222      -4.32839767      -9.56904763       1.59632364      -1.27806555      -1.76606086      -0.61145562       0.00241855       2.14898992
O       20.36690740      -3.88835626     -11.76166983      -0.44893126       0.27697136      -0.13757110      -0.34277728      -0.39251983      -0.48666540
H       19.87002153      -3.42521790      -9.27809838       0.20021193       0.11729288       0.07382730       0.64059371       0.07537386      -1.54850984
H       21.67225866      -6.16266708     -12.05591706      -0.45513663      -0.16186910       0.40654701      -0.42187291       0.36530337       0.90027177
H       21.04834255     -25.90802175     -10.49878207       0.10901312      -0.11448208       0.08501123      -0.35761440      -0.34294003       0.52393824
H       22.50898761     -24.89654051     -10.55560652      -0.42090744      -0.17915384       0.28852720      -0.51090991      -0.04469896       0.13191247
C       21.48860698      43.85462503       3.89373814       1.22942940      -0.09108098       1.00922489       0.58553654       0.43399322      -0.14967729
C       20.36972160      42.99996738       3.44904171       0.59478381      -0.35141187       0.98274162       1.57966304      -3.14432669       0.97107661
O       19.21637830      43.38684479       3.37211405      -0.75389407       1.28455098      -0.84276763      -1.99716651       1.00419557      -0.17635693
O       20.75761537      41.74145090       3.19203499      -0.39811991       0.71747329      -0.07739893      -0.37841731       0.55284441      -0.33677205
H       -2.89957735      17.52029996      22.81027684      -0.07087360       0.15225110       0.14074481      -0.00669606       1.77402234       1.04823065
H       21.95069606      44.04760764       2.93068454      -0.03110140      -0.55110589       0.33769945       0.87691343       0.58235747      -0.02814426
H       22.22061322      43.46044855       4.61990745      -0.01044903      -0.07476691       0.18814940      -0.58630741      -0.20066310      -0.39841509
H       21.06587987      44.75917922       4.26933107       0.02137841       0.03555092       0.04477587      -0.15286523       0.97932816       0.25462699
C       19.17041992       6.38596992       6.71447611      -1.60665014      -0.07282981      -0.15838154       2.44408226      -0.48286277       0.49306571
C       20.54418521       6.43321087       7.47628219      -0.08845946       1.01247908       1.15651599       0.82208991      -0.49274486      -0.46554458
O       20.89306297       7.35553302       8.21383145       1.68501135       0.22991972       0.36782772      -0.72054064       0.49628913       0.44238010
O       21.42541362       5.45748984       7.16490744      -0.31403598      -0.96534876       0.28999362      -1.95661473      -0.32333469      -0.45762038
H       19.68411452       3.00814073       9.97197354       0.20601870       0.04071458       0.13749889       0.67054552      -0.53005207       0.13169222
H       19.30568460       5.67428175       5.88795066       0.01557019      -0.06225572      -0.03272044      -0.53582883       0.20380157       0.13693759
H       19.11510647       7.39533380       6.36551301      -0.01037699       0.12254090       0.28338447      -0.41133380       0.83250499      -0.71342552
H       18.32761584       6.23659719       7.36616922       0.09601690      -0.30781240       0.43705301      -0.31329656      -0.44401687       0.41215754
C       24.82631271     -13.07912872      -8.81980070      -0.35729705       1.36270303       0.67143682      -0.53735787      -1.85131598      -2.88240147
C       24.18568015     -12.95006104     -10.28154739      -0.46249691      -0.45964053      -0.05646581       0.12553596       0.92264038       0.02084339
O       23.48358343     -13.93497457     -10.76358515       0.56964858       1.02721152       1.21017094       1.29911852       0.83079708       1.36959016
O       24.46009858     -11.84657447     -10.89884424       0.17319432      -0.15804267       0.48558065      -0.52958119      -1.03972208       0.19969964
H        8.37662262      -4.33210809      -6.92521805      -0.04265807      -0.38555763       0.06881242      -0.23164886       0.04975653      -0.08064267
H       25.58245623     -12.32463611      -8.69146982       0.17179311       0.05514686       0.36814906       0.40324643       0.20283976       0.24978854
H       25.23134125     -14.13056134      -8.89732656       0.11357672      -0.29574316       0.05733966      -0.12060176       1.00898206       0.77639949
H       24.05581894     -13.00483400      -8.07172106      -0.06334430       0.24138322       0.16963005      -0.37970367      -0.10912128       0.51639104
C       13.61560102      10.91048499      11.67840191       0.98951035       0.08637479       0.24318705       0.42297256      -0.95001018       1.06947112
C       12.94596359       9.59093985      11.36151709       0.36041881       0.37555358      -0.73247194       0.73672676      -0.11600089       0.30288923
O       13.52393821       8.52460397      11.75298640       0.38414836      -0.54905542       0.35850090      -0.15587053      -0.09036839      -0.41641372
O       31.03474894       9.65370246      10.68195581      -0.20705420      -0.11706733      -0.74569227      -0.96414685       0.21013755      -0.61292267
H       12.75803751      16.33593098       5.17620644      -0.02584066      -0.41687674       0.36154164      -0.40909332      -0.15295342      -0.21491998
H       14.16425698      10.70176131      12.62026972      -0.14343963      -0.18921610       0.07600431       0.26684701       0.44812354      -0.63156843
H       12.93092091      11.72302515      11.88091833       0.17537937       0.27279536      -0.09337781      -0.35959998       0.26114318      -0.17089935
H       14.25769464      11.15796165      10.82976685       0.38066920      -0.38043313      -0.09603258       0.39186391       0.22086388       0.11618596
C       15.92323982      -4.29404754      -9.81014154      -0.22045197      -0.35413706       0.80691456      -0.14583920      -0.05268300      -1.42821634
C       15.47578111      -5.46696169     -10.65481887       1.01828938       0.89517777       0.99031246      -2.03048778      -0.80308259       0.93880087
O       14.07355621      -5.44154898     -10.95260677      -0.43776878      -1.23820330      -0.00078413       1.72564673      -0.42850351      -0.26682580
O       16.15373370      12.67804781     -10.86708100      -1.49199705       0.61236803      -0.56330169      -0.93073440       1.35017645      -0.32917854
H       11.17976243      27.90543264      10.05783110      -0.07700301       0.13618954      -0.24675008       0.22224313      -1.18757725      -0.20062071
H       16.99517890      -4.27375689      -9.93191732      -0.01494716      -0.08262452       0.05067213       0.54205173       0.60517973      -0.18283534
H       15.76258365      -4.55956933      -8.79055022      -0.03108738       0.13155846      -0.14253393      -0.49559423      -0.14035314       1.23413479
H       15.36860736      -3.36039020     -10.06184615       0.31917948       0.15080588       0.14742213       0.55664933      -0.50834602       0.15712711
C      -13.61679032      23.54127329      24.30465638      -0.06112790      -0.99812586      -0.14173981      -0.19226113      -0.61487138      -0.61196941
C        5.90691396      22.28710865      25.08770284      -0.22402241       0.22386574      -0.17796739       0.05345841       1.80078125      -1.16864729
O        7.22864189      22.14160750      25.29121793       0.75844705       0.32049774       0.79905906      -0.47476768       1.30254459      -0.40058091
O      -14.11754245      21.52661865      25.44239825       0.46406705      -1.78255066       0.23557650      -0.36308062      -1.47518253       0.76620507
H       15.80242194       5.19243853      15.94745162      -0.20487909      -0.11945635      -0.10898724       0.06191245      -0.48354909      -0.60082310
H      -14.09442436      24.23538645      25.00367383       0.35542562      -0.04539324       0.16242967      -0.37764791      -0.04671764      -0.16949573
H      -14.25911389      23.18336122      23.46078728      -0.03556787      -0.13101669       0.05072196      -0.14000306       0.34015161       0.97359097
H      -12.83672540      24.05174943      23.75079293       0.27303344       0.04534217      -0.00512966       0.70068532      -0.02142641       0.38593981
C       27.46336403      29.82346839       6.19176361      -0.15235613       0.48247389      -0.28263972      -0.40162587       1.48939037      -0.03258622
C       26.30375650      30.20088417       7.10523317       0.87123403      -0.81628963      -0.10499400      -0.06277668      -0.14222735      -0.59124422
O       25.14717024      30.41055063       6.68372294      -0.01388448       0.06646894       0.19267369       1.40140855       0.08940778       1.30760586
O       26.77342563      30.27016128       8.39895210       0.31766814      -0.01519393       0.92569046      -1.48414826       0.33794188      -0.92781663
H       25.90763421      11.21223649       8.99713405      -0.39944968       0.03517705       0.05829870       0.21966636      -0.24823070       0.44472340
H       28.32813762      30.23274538       6.75619734       0.23516683       0.06654780       0.01419567       0.02509205      -0.12277023      -0.90365964
H       27.27246238      30.28874823       5.16048314       0.00488224      -0.09100958      -0.20835407       0.69381130      -0.95984334       1.39031291
H       27.58762896      28.73375552       6.18630119       0.08148651       0.17627977       0.00270119      -0.11628871      -0.01018110      -0.41963351
C        3.29578802      11.22417111      18.79333340      -0.47275918       0.00106088       0.13565940       0.35609069       0.94432390      -2.32491779
C        3.65178572       9.85138578      18.13987056      -0.53637928      -0.54121292      -0.03769622      -0.05979395       2.79498863      -2.09884667
O        3.82487150       8.92761639      -0.25493310       0.31329181      -0.07308352      -0.02546650       0.45044342      -2.61959314       1.88874066
O        3.76053439       9.75470580      -2.33119252      -0.73852602       0.91031527      -1.15173453       0.22112778       0.49235845       1.37670851
H        4.16758341      13.34164515      21.51469923       0.06995670       0.28213710      -0.02229446       1.01464188       0.14458162       0.39116260
H        4.02777779      11.73977167      19.39686787      -0.17623378       0.09437230      -0.04718105       1.11757445      -0.09677354      -0.01844320
H        2.56826012      11.06282187      19.50846717      -0.14308493       0.21820389      -0.15762492      -1.97118998      -0.81636608       1.70717382
H        2.85035057      12.01097120      18.13432384       0.05976881       0.13029067       0.22570086       0.47126341      -0.71649384      -0.06895019
C       13.88695815      18.53623538       6.59943173       0.08374395       0.28619500       1.03353622      -0.49161744       0.45182347       0.77090168
C       14.52092754      17.80129015       5.43488187      -1.24549364      -0.44554103      -0.36480047       0.67193395       0.82933843      -0.13059723
O       15.75707180      18.07545389       5.12082209      -1.00896359       1.22434919       0.18064090      -1.54086769      -0.39658153       0.43304050
O       13.85407910      16.97634728       4.75066010      -1.46961314      -0.15772228       0.69135419       0.36500227       0.27242392      -0.11283287
H        7.40154114      21.26867018      25.69127208       0.13143655      -0.35386076      -0.28080043       0.63188660      -1.11849046       0.72048187
H       14.57394660      18.48577656       7.52805768      -0.04436800      -0.10542800      -0.03890087      -1.36474276      -0.13009989      -1.18318093
H       12.83343043      18.12275779       6.69290779       0.25934266       0.27580032      -0.44634953       1.35004556       0.30662853       0.66817963
H       13.70729806      19.64089754       6.42213734       0.08270526       0.13028560       0.42999835       0.52920485      -0.88320303      -0.10742792
C       21.86050924      -4.70293233      12.93091121       0.06569959       0.51945317       0.89625710      -2.34225965      -0.77284682       0.42091498
C       21.31360509      -3.51883720      13.68079146       0.37500732      -0.87406640       0.32584955      -0.21023867      -1.50060332       0.17740440
O       19.99999369      15.85746137      13.57765162       0.38274886      -0.18149215      -0.53136144      -0.46313000      -0.39357048      -1.12550831
O       21.98121196      -2.82792482      14.41380358      -0.77330202       1.39597954       0.43413186       1.81437135       1.23605323       1.03779244
H       39.04914831      -2.31957910      13.76578372       0.10654794      -0.08995854      -0.30918249       0.00830410       0.66193569       0.43294278
H       21.32985173      13.49264100      13.14844933       0.14246359       0.04471666      -0.15662165      -0.52751565       0.71113384       0.17800300
H       22.83208503      -5.02653728      13.14291447       0.22646343      -0.01738680       0.07409871       1.95369148       0.51880306       0.28266639
H       21.63408663      -4.51627973      11.90743185       0.06811607       0.04691390      -0.52536826       0.19543767       0.04886928      -1.44379294
C        0.92719385      10.60860177      -3.23167802       1.58427806       1.01101038      -0.68866166      -0.04040289      -3.41850710      -1.72079527
C        1.78496027      11.16987239      -4.32471077      -0.49551695      -0.32003439       0.64564472       1.00546074       1.56803048       0.57806665
O        1.34210181      11.64602917      13.78712300       0.44035778       0.30939943       0.10409351      -0.61867565      -0.54333800      -0.75844431
O        3.08393457      11.37135233      -4.03259757       0.11369050       1.21382048      -0.05228703      -0.13677078      -0.01009011      -0.49805379
H        3.35069092      10.79438855      -3.20390335      -0.12046514      -0.05142301       0.26297515       0.27038693      -0.56895185       0.43137461
H        0.00770112      10.23183791      -3.76934847       0.33611395      -0.24921150       0.23411635       0.51690328       0.64503157       1.03984427
H        0.79150818      11.28831589      16.69159072       0.25658741      -0.21316610       0.16718502      -0.95585859       1.76524758       1.29519355
H        1.41298670       9.74957808      -2.68908312       0.05540192      -0.22598711      -0.22001815      -0.27506569       0.51398665      -0.77864707
C       12.27010586      14.47064630      14.22529194       0.16246230      -0.52617715       0.80913718       0.00143880       1.34403038      -0.74976563
C       13.73054254      14.96630220      14.47346294       1.21804062      -0.82924182      -0.10507129      -1.08394992      -0.41053715      -0.27235836
O       14.03419781      15.37254189      15.59064968      -0.59327566       1.17904428      -0.60086449       0.82982457       0.04809417      -0.17700128
O       14.50731117      14.81395424      13.37387719      -0.54713781       0.63608920      -0.73550784      -0.46106109       0.20448597       0.90867436
H       -2.29975335      12.01731094      -3.88428401       0.07869757      -0.01803105      -0.06697015       0.20836735       0.73805225       0.23675382
H       12.17789422      14.49835900      13.10400316       0.25106161      -0.27481377       0.21972959      -0.42697144      -0.49412608       1.05979431
H       11.46704667      15.14412232      14.71076918      -0.00421533       0.24811232      -0.00098894       1.37118804      -0.84316021      -0.56301510
H       12.16729361      13.46161560      14.64665971       0.31079099       0.01542729      -0.14379140      -0.06716725       0.01198079      -0.26583999
C        4.46742691      -2.12506044       8.47977629       0.83514278       0.37848385       0.33863001      -0.18996620       1.08327222      -0.79425728
N        5.78451399      -2.73253699       8.25101431       0.14934009       0.54314811      -0.03854008       1.41869640      -0.37795782       0.04511543
C        6.01310655      -3.83214854       7.42644533      -0.52756064       1.61578162       0.74287710      -2.10165930       0.25048083      -0.31409883
C        7.31193802      -4.14702255       7.47888196       0.96145494       0.04970278       0.13044525       2.64281893      -0.43906945       0.79411453
N        8.01630686      -3.22038882       8.30304584       0.41555460       0.81899849      -0.28714069      -0.90483272      -0.87701339      -1.03682017
C        7.07936994      -2.39292871       8.70341616      -0.58665866      -0.12427403      -0.41626912      -1.40924382      -0.16999975      -0.05600429
H        3.65082572      -2.80741250       8.76496255       0.06031628      -0.24557049       0.08828891       0.59364510      -0.13473684       0.24887881
H        4.14704467      -1.71173008       7.50037101       0.33225078       0.16418359       0.31029548      -0.03654300       0.01816001       0.32178792
H        4.51561700      -1.26021746       9.17983480       0.03328398      -0.02421961      -0.24748594       0.15612653      -0.73120105      -0.25910389
H        5.20807510      -4.21166550       6.80684113       0.00200881      -0.18872003       0.33416670       0.09170735      -0.15301874       0.10138112
H        7.84769227      -5.05030103       7.14467667       0.15560918       0.12607982       0.16541836      -0.52023119       0.49772280      -0.03739327
H        7.24044268      -1.51821104       9.27370560       0.18876077      -0.42983417      -0.23091316       0.17827031       0.91864264       0.72065556
C       17.30552969      16.39557869      16.95767560      -1.11260569       0.21354724      -0.19580274      -0.69016302       0.64891315       1.19731426
N       16.22642625      17.34464564      16.54441985      -0.50538295       0.51557354       0.59390946       2.21381092      -3.29673529      -2.00217628
C       15.67059592      18.33096410      17.23443250      -0.26500955      -1.47076072       0.68098449      -1.03126216       0.11149636       3.87533522
C       15.05786263      19.13542326      16.34530033       0.13445498       0.33550543      -0.19863595      -0.25346029       2.48535490      -1.14436150
N       15.41180560      18.76655813      15.06914466      -1.44039332       0.17753520      -0.03750635      -0.40811998      -0.67648780      -1.01692200
C       16.07452980      17.62105160      15.20242628      -0.72318508      -1.22942104       1.56555941      -0.35173205       0.65738988       0.81299031
H       17.50218422      -3.54141900      16.24999774       0.26625523       0.02544657       0.20292623      -0.66876936      -0.53247869      -0.65612155
H       17.16816392      -3.18887287      17.98441229      -0.32414913       0.07752908      -0.11271788      -0.04792620       0.48964551      -0.78539878
H       18.18857455      16.99680930      16.89116476      -0.29512755      -0.04968101       0.24319605       1.01274574       0.36267892       0.51041812
H       15.62323982      18.25762281      18.35118756      -0.12311343       0.05438093       0.03305422       0.03850815       0.27827522      -1.16142368
H       14.48730321      20.06976244      16.43506547       0.01872728       0.09732140      -0.20867839       0.18506637      -0.50765294       0.52083874
H       16.38657930      16.93801516      14.43406784      -0.35773386       0.51873498       0.15247727       0.14312007      -0.14260238      -0.11222322
C        5.92667068      18.78627577      14.29332579       0.31270825       0.05183168      -0.34914165      -0.74162984       0.70374751      -0.11956266
N        6.17566312      17.63579853      13.43268094      -0.39963888       0.26556935      -0.86377850       0.42273116       1.41033459       2.10281444
C        5.32645675      16.97635815      12.61069951      -0.52600389       0.70218303       0.95579763       1.00676465      -2.95589972      -1.68414879
C        6.15501000      15.91445396      12.09128303      -0.19322114      -0.71068241      -0.17677994      -0.12920141       1.69826722      -0.66249537
N        7.50825844      16.10996308      12.54313313       0.84462843      -0.41332507       1.43725539      -2.32978392      -1.20165777      -0.07369047
C        7.39754008      17.07353513      13.45403253      -0.17995072       0.97581072      -1.29134506       1.34101629      -0.49953914       0.06472331
H        6.05143564      19.69873635      13.68290861      -0.19544891       0.18457110      -0.27724314      -0.20882657      -0.01233102       0.44281667
H        6.57242578      18.88067896      15.18782293      -0.23662884       0.07984394      -0.17418176      -0.20931083      -0.62189174      -0.65741473
H        4.91781572      18.67882028      14.69099997       0.00818646      -0.11164385       0.07088324      -0.19717336       0.21679322      -0.12366999
H        4.26543709      17.17310480      12.37824388      -0.00628072      -0.28648350       0.04586573       0.83907020       0.08127430       0.61799061
H        5.88188550      15.19464074      11.27145259      -0.06487803      -0.26256391      -0.10534532       0.39583719       0.56750351       1.25080442
H        8.11199609      17.22057349      14.30154393       0.22737051       0.39584567      -0.01917718      -0.60837054       0.06146273      -0.99523246
C       16.75004458       8.82347130      12.69799877       0.11991833      -0.34496094      -0.59925951      -1.38399220       0.08918439      -0.82092929
N       16.36219366       8.14443165      13.92649282      -0.90341849      -0.07417240       0.31880640       0.55635953       0.07058179      -0.56983161
C       16.41759873       8.70379589      15.18656975       0.82741564      -0.14952195       0.27051416       0.93449557      -0.74909800       0.47360623
C       16.13401197       7.62817459      16.02325706       0.20760003      -0.18441160      -0.34509333       0.05617330       0.62648624       1.05171692
N       15.97150295       6.46305601      15.30385786       0.26350492      -0.14617097       0.27301982      -0.27939904       0.81187761       0.44145799
C       16.07258022       6.82313876      14.02200327      -0.18648946       0.54655045      -0.20859014       0.17011279      -0.68818474      -0.89256948
H       15.79676516       9.00959012      12.15750131      -0.12824184      -0.03915478       0.20478675       0.53776824       0.45270705       0.09823437
H       17.29049463       8.17691517      12.02672031       0.10773358      -0.16636280      -0.26359699       0.52297044      -0.65537477      -0.03917361
H       17.34641869       9.71974634      12.85733785       0.27317949       0.21999867      -0.07021406      -0.16676068       0.19088966       0.29710513
H       17.07926113       9.57802388      15.35945292      -0.32867482       0.12283497      -0.17208926      -0.94639790      -0.38331884       0.02127822
H       16.02953366       7.64740596      17.11638826       0.06832268      -0.05509548       0.02466471       0.05674606      -0.00721559      -0.50112092
H       15.98955416       6.14531639      13.14300594      -0.07238559      -0.24974566      -0.16790943       0.02349874       0.69002569       0.71379268
C        5.52734786       9.44270308       2.80159916       0.24745813       1.34133400      -0.26967246      -1.95016265      -0.06967202      -0.27362895
N        4.78696423       9.30868411       4.11277570      -1.05178529      -0.16028973      -0.13531593       0.39660886       0.88605231      -0.28392982
C        3.80670212      10.23018003       4.59652878      -0.25987163       1.42499232       0.00382744      -0.92540461      -1.10339618      -0.00741358
C        3.52880611       9.87275994       5.91609642      -0.69201127       0.53644161       0.07283906       0.94355613      -0.26921681      -1.74952614
N        4.36400775       8.80818777       6.13515773       1.19605182       0.21281331       1.73461676      -0.91493160      -0.75360882       2.83403492
C        5.14557538       8.47207550       5.13681651       0.77932094      -0.02744547      -1.08231722      -1.44122064       1.73123121      -1.60482800
H        4.79247673       9.85646993       2.02160039       0.35000615       0.15090948       0.09052639       0.97632688      -1.03093290       0.91995859
H        5.99479235       8.47503150       2.54296045      -0.14900469       0.16479700       0.13854313      -0.50553274       0.27916998      -0.06467793
H        6.30584676      10.15857841       2.93243338      -0.37709398      -0.05002254       0.18049214       0.73630738       0.61497885       0.22039981
H        3.08401063      10.76574954       3.95371135      -0.21881513      -0.05497698       0.35947856       1.06822956      -0.25872475       0.03596127
H        2.83606065      10.21339980       6.67904756      -0.11359535      -0.08623196       0.08568054       0.12414593       0.01646626      -0.31287056
H        5.85933786       7.69035534       5.17740274      -0.56686566       0.10846842      -0.02198205       0.63859129      -0.52420568      -0.31085265
C       11.57206813      -1.53653423      21.16836396       0.28055513       0.21958449      -0.33276795       1.78468478      -0.32629144       1.90466523