640
Lattice="19.152215 0.0 0.0 0.0 19.152215 0.0 0.0 0.0 19.152215" Properties=species:S:1:pos:R:3:momenta:R:3:forces:R:3 energy=-80124.6875 stress="-0.019620072096586227 0.003700035158544779 0.0005887978477403522 0.003700035158544779 -0.02028696797788143 -0.002243757713586092 0.0005887978477403522 -0.002243757713586092 -0.017749128863215446" pbc="T T T"
C       20.86982348      11.19557101       9.12885795      -0.48980439       0.00536448      -0.44669591       3.06492186       1.04958391       3.72099376
C       21.24431601      11.48604451      10.62597873       1.30419447       1.87883511       0.43596146       2.05885363      -0.98914433      -0.17896840
O       22.37277824      11.70931803      11.09505660      -0.04514337      -0.02609666      -0.68360721      -1.05950594       0.08524854      -0.84734619
O       20.22655617      11.43402957      11.51401291      -0.22859012       1.61926463      -0.56150158      -1.36363697      -2.29805541      -2.73575783
H       -6.13127387      29.55936667       1.47766936      -0.18689265      -0.14359037      -0.24341682      -0.60073698      -0.39283267       0.42772210
H       21.63498933      10.66365134       8.64071761       0.06088360      -0.16519525       0.01195697       1.03690386      -0.49108773      -0.70026463
H       20.63807556      12.15709241       8.85117615       0.18981037       0.08714237      -0.05395958      -0.34188062       2.20631838      -1.74425864
H       20.03160927      10.68680901       9.26994539      -0.11004317      -0.05146642      -0.31105653      -3.81170893      -2.73309684      -0.15456307
C        4.71901764      -4.64188087       8.83671529      -0.01923572      -0.39984532       1.80054747      -0.79880607      -0.47857350      -0.35392216
C        5.10930157      -3.56798633       7.83630031      -0.33391224      -0.68174529      -0.22789250       0.36463618      -0.43300688      -0.92040557
O        4.81126070      -3.93973131       6.56490387      -0.60559836      -0.04543666       0.02770373      -0.10359353      -0.62162578       0.94424468
O        5.61757005      -2.48038780       8.14875365       1.16216674      -0.71539425       1.05265550      -0.35206091      -0.65901017      -0.08610508
H       22.40643326      15.70800031      -6.54051415      -0.12267579       0.16242963      -0.24776959       0.30972075       0.10823637      -0.32016957
H        3.84936894      -5.29690228       8.55296843      -0.06199339      -0.04673932       0.08571491       0.55480033       0.97543621      -0.01132670
H        4.50657930      -4.07129102       9.71198007      -0.23830351      -0.10328028       0.09315258      -0.55264086       0.19274706       1.12303305
H        5.46489885      -5.37283909       9.14468504      -0.04853735      -0.29172407       0.19261715       0.84621072       0.17314552      -0.37692976
C       16.24233905      15.43759104     -17.37371521       0.08873005      -0.69259835       0.63768629       1.51902676      -0.98796475      -2.16664100
C       15.60698630      15.45602795     -18.78843533      -0.49636072       0.27927805      -0.02958442       0.75708139      -0.11712062       0.00622940
O       15.80821080      14.64987849     -19.71487528      -1.05752459      -1.07792224       0.65277440      -0.12033159       1.01912129       1.27254081
O       14.73464205      16.47415987     -18.94196804       1.96372224      -0.00022596       0.29972134      -0.62997615       0.42102128      -1.15178037
H        1.36525632      12.10551788     -26.23943494      -0.15359864       0.06240667      -0.05258305       0.61912948       2.84187412       2.69091630
H       15.85603809      14.47746665     -17.01177287       0.17158143      -0.10010350       0.25389355       0.45277318       0.06945561       0.85809439
H       16.01211021      16.31191150     -16.81260552       0.01510199       0.12259899       0.08761424      -0.84359813       0.57207495       0.73098028
H       17.38240564      15.47942178     -17.46247115       0.07479188       0.05630288       0.03590426      -1.24231434      -0.66326624      -0.03452446
C      -18.81705456      24.87498975     -11.73906900      -0.73766742       0.37028586      -0.29012447      -0.50282711      -2.04169416      -2.30200911
C      -17.74164842      25.84708150     -11.74284539      -0.43800724       0.05396282      -0.50555602       2.89630675      -2.39771724      -0.71605128
O      -17.92480917      26.99343387     -11.54628315      -0.66926478       0.92772346      -0.32122047      -0.37389126       4.09604216       0.52999634
O      -16.38875353      25.44624982     -11.99019929       0.11287702      -0.30177696      -1.08548073      -0.99612045      -0.84686941       0.18852153
H        5.64866488      18.28858553      -4.30701498       0.24564235       0.08900319      -0.00246094       0.85175252      -0.18693809      -0.17377770
H      -19.71548040      25.36132591     -11.47293192      -0.42983202       0.15293299      -0.20893198      -1.21232581       0.91493577       0.80982208
H      -18.62685027       4.90136305     -11.05521751      -0.20554025      -0.15195174      -0.39427675       0.08102739      -0.56378788      -0.06957509
H      -19.07747915       5.37859105     -12.81418755      -0.14794358       0.05141742       0.26874387       0.93882996       0.19703391       1.97643173
C       15.71873828       9.46092780     -26.41234430      -0.31210919       0.84329771      -0.04224520      -1.57110572       1.24723423      -0.36525559
C       15.61011782       9.36642452     -24.93296710      -0.20710365      -0.38500918      -2.00821955      -1.97687042       0.42387676      -0.34624553
O       14.52245414       9.54254908     -24.33234173      -1.16387611      -0.37097741       0.72138029       1.17361999      -0.31626922      -0.02346647
O       16.79495109       9.14796863     -24.46398254      -0.02710192      -0.48902164      -0.03021620       1.35207856      -0.16286969       1.18680167
H        4.79583459       7.79794549       1.50356739      -0.10896771       0.14496795      -0.15991194      -0.25814456       0.30713484       0.06126714
H       15.83607680      10.59395303     -26.57416176      -0.14595100       0.03192536       0.00570833      -0.85725260      -1.47224140      -0.49318016
H       14.81829229       8.91215246     -26.86817033       0.10221566      -0.12011894      -0.12774287       1.49693811       1.18073893       0.07477182
H       16.69714981       9.12054866     -26.66943754       0.09755491       0.26099576       0.15182355       0.61911160      -0.91360116      -0.79217339
C       -0.58177834      -7.25351390      14.95534364       0.25343578       0.51304965      -1.63411722      -0.55868608       1.11501443      -0.12798479
C       -1.06063866      -8.00810204      16.24381743      -0.33255155       0.18224563      -0.05562903       0.90467674       1.24309158      -1.77015138
O       -1.73801049      -9.08587054      16.08464610      -0.24625802       0.42013579       1.18460264      -0.64579779      -0.50664604      -0.20936006
O       -0.74026986      -7.45011694      17.29426743       1.35561343      -0.41908871      -0.54770288       0.16274086       0.18775934       2.03880358
H        8.70603577       1.50436589      -6.63596960       0.29465365      -0.00361808       0.11418210      -0.93637216       0.59811223       1.23741245
H       -0.97423999      -6.19012830      14.86316870       0.03764858       0.18274241       0.14470211       0.79822850      -0.81024516       0.98592591
H       -1.11731833      -7.65205400      14.13963414       0.05980429       0.19200774      -0.26432404      -0.42450255      -1.15033829      -1.51233268
H        0.49981918      -7.26352615      14.70356560      -0.28928052       0.02650986      -0.07338040      -0.47364047      -0.03014283       0.49134165
C      -17.30780802      -1.43008690      23.71310695       0.45537326      -0.23855842      -0.33393007      -0.46729064       0.24610198      -1.61965036
C      -17.28139303      -2.68222414      22.78900373       0.20948621       1.45645706       1.00049040      -1.76429224       0.56543797      -0.16535032
O      -18.36465000      -3.09354424      22.28429919      -0.13451426       0.84106180      -1.24599697       1.63264203       0.31340277       0.58809650
O      -16.13300667      -3.30189878      22.54016916       0.40328400      -0.59978361      -0.87921751       1.52068079       0.72506797       0.42107713
H       17.00194678     -17.25427616       8.21296616      -0.02433240      -0.09661735      -0.28097598       0.98328513      -0.00991533      -0.58990932
H      -17.42528412      -0.49183820      23.07189938      -0.11578663       0.08469326      -0.31554302       0.51636404      -0.97966039       0.57259208
H      -16.44292247      -1.36824805      24.36512302      -0.24361754      -0.05802437       0.00243232       0.15223899       0.10198414       0.09890132
H      -18.25612770      -1.46807159      24.24150806      -0.02045498       0.13687880       0.01508561      -0.18599026      -0.12118986       0.50448078
C       -5.96049131       7.31050964       2.41829973       0.14224898      -0.28163722       0.12249894      -4.90604305      -1.65992272       1.99824095
C       -5.76616413       8.56198562       1.72076701      -0.55530982       0.31167459      -0.37073665      -0.48928061       0.48104614      -0.86350280
O       -4.97445933       8.54033339       0.79426260       1.29434486      -0.40181606      -1.16237755       0.59580457       1.05745733      -0.49953434
O       12.62979984       9.66580594       2.07409020      -0.40363865      -1.22977859      -0.72833780       1.34889555       0.27233726      -0.84733576
H      -12.74114824       9.60035633     -12.02317976       0.11279120      -0.24213516       0.29397658       0.35759374       0.86628628       0.38140139
H       -5.07978020       7.01164091       2.87997587      -0.19639774      -0.08282951      -0.00257924       2.06872082      -0.89290977       0.72236133
H       -6.40880871       6.48602033       1.79571954      -0.39561794       0.00111081      -0.18496804       1.03596401       0.60045743      -0.36990249
H       -6.78216962       7.21834752       3.22944610       0.22766638       0.04892673      -0.15331775       1.17396808       1.05013514      -0.67732489
C       17.55051274      -9.07059280       8.32852584       0.35650671       0.28999717       1.12479237      -1.65820432       2.98459196      -1.81337845
C       17.14381804     -10.43547650       8.06420792      -0.09864002       0.21255331       0.08188241      -0.03777258      -1.60722518      -1.78665662
O       16.96789052     -10.87313933       6.72858559      -0.09448724      -0.96478606       0.41328560       0.16002393       1.24335456       0.94699478
O       16.92438748       7.88870251       8.90721839       1.03924810      -0.48828756       2.21916335      -0.19282195      -1.26338089       1.63879538
H        6.58123972      21.23899997       0.93864952       0.28778604      -0.12223110      -0.30586091       0.31851712      -0.62132382      -0.52982175
H       17.76017586      -8.74934789       9.39443804      -0.17629967       0.24824138      -0.28748889      -0.20447224      -0.64776707      -1.36428297
H       16.63321961      -8.49176222       7.86312447      -0.08486851       0.08845964      -0.22126111       1.08410883      -0.38660094       1.47841609
H       18.25060153      -8.73270657       7.53238435       0.03045969      -0.19856333       0.00289078       0.54189789      -0.29277697       0.91845953
C       -9.16392884      13.97897333     -13.30830327      -0.51603438       0.51365717       0.19096569       1.96791530       3.69189310      -4.56826973
C        9.32065608      13.73045631     -12.07044421       0.50294214      -0.10931584      -0.03665708      -2.33236098      -0.69332945       1.59783292
O        8.90252655      12.43117984     -12.14856538       0.87706049      -0.38775224       0.62106559      -0.86569369      -0.47698098       1.63125658
O      -10.18076394      14.47517210     -11.12540034      -0.25586852       0.11958576       0.01051708       0.99228173      -0.83772933      -1.75948977
H       31.53861785      14.83738306      -5.82997791       0.12809175       0.42974490       0.02756976       0.24794516      -0.13942942       0.62060618
H       -8.08175277      14.16325319     -13.14085825      -0.21976767      -0.30424853      -0.02103213      -0.20652401      -0.15585089       0.17382929
H       -9.50855052      15.03347628     -13.68627994       0.09160776       0.21087345      -0.10583948       0.47051197      -1.48635292       0.59058309
H       -9.19722378      13.33899618     -14.29584914       0.01172502      -0.06213228      -0.08620044      -0.44878805       0.55041158       2.54526210
C       30.04538623      13.44692913      10.13050427       0.25510053      -0.24811612      -0.88742300       1.22454631      -1.42705035       1.79271805
C       30.22853550      14.22720361      11.40459362       2.15498882       0.19118325      -0.12001839       0.48183802       0.64441967      -0.09686387
O       29.89320684      15.45277092      11.32335811       0.70744573       0.19456284      -1.24087469       0.40259331       0.75633979       0.28198653
O       30.76236895      13.72641839      12.48141584       0.44849614       0.49138376      -0.27596317      -0.66513121       0.17588308      -0.74802148
H       22.06346361     -13.88400550       7.13992011       0.35638356      -0.01025466       0.11704442      -0.76597452       0.79669672       0.01730903
H       30.09017791      13.97960790       9.19008157      -0.13149885       0.17094042       0.04958372      -0.06574859       0.40485579       0.08897869
H       29.10312752      12.94449099      10.29880870      -0.10961779      -0.01349793       0.01085917      -0.60587859      -0.33347929      -0.57282525
H       30.83066296      12.67579246      10.20339392       0.12564645      -0.24523625       0.30360492      -0.72997224       0.64419329      -0.18587960
C       -5.54437082      -2.37483897      34.97111050      -0.17197334      -0.36668890       0.84184205      -0.27464634      -1.01956058       0.05230841
C       -6.53425501      -3.00113560      33.97957047      -1.14166595      -0.09533038       0.07320611       2.19465375      -0.36719480       1.00391078
O       -6.05910376      -3.94853239      14.01290372       0.10225312      -0.10483376      -0.16887790       0.31755769       0.06397831      -0.35568976
O       -7.67472713      -2.63340318      14.85415701      -0.06229485      -0.15832589       0.01050572      -3.06054211       0.53455418      -0.54640043
H      -12.16362127       9.63887917      28.61508137       0.24359764       0.09835462      -0.18609136      -1.72558284       0.60477310       0.39956370
H       -4.94123948      -1.68009937      34.41470409       0.05055522      -0.25845692       0.17030600       0.72743607       0.51612419      -0.36674601
H       -4.88831242      -3.14045058      35.42176495       0.09949177      -0.01013501       0.13272123      -0.10592698       0.22290415      -0.14091179
H       -6.07613435      -1.80238931      35.75497753       0.10847278      -0.30208470       0.05893011       0.13343915      -0.41820940      -0.37271637
C       18.17774230      -1.08411228      27.24770800      -0.15646714       0.61648379       0.10034386       1.29891026      -3.13223982      -0.62534750
C       17.21495098      -0.02788079      27.07954424       2.27156093      -0.46945864       0.56135112      -1.60126066       2.40838265       0.24323690
O       15.98612860      -0.19011865      27.00361036      -1.52220330      -0.64053408      -0.18809151       0.78466862      -0.08332527       0.12994483
O       17.78309187       1.23512728      27.06914615      -0.16807134      -0.85719548      -0.19398457      -1.26323748      -0.37862718       0.47182804
H       -7.04870088      16.23958683      30.29091662      -0.09272307       0.04720370       0.09818448       0.28351387       0.72604048      -0.05932227
H       18.11395727      -1.65299149      28.20324637      -0.22571264      -0.37047446      -0.26537271      -0.50675571       0.40343153      -0.18333845
H       19.22614166      -0.75201160      27.22647870       0.13276337       0.10820704      -0.21649915      -0.18355753       0.02822479      -0.45507360
H       17.94497346      -1.89167043      26.45408681      -0.11824526      -0.07009570       0.18271659       0.62200433       1.08438730       0.94640803
C      -16.64833754      19.24293914      -3.14154315       0.06477191      -0.20494706      -0.00980079      -0.88192344       1.67989564       2.19959426
C      -15.27275717      18.81168715      -3.05083785       0.20560651       0.61204600      -0.64087275       1.60407662      -0.43185461       0.00884375
O      -14.42541650      38.32119781      -3.94495290      -1.38929191      -0.04612815      -0.26214231       0.00282631       0.19028619      -0.11377097
O      -14.99185317      18.04061346      -2.07592869       0.38666629       0.17103160      -0.94559031       0.51588714      -0.25953424       0.11198323
H        0.50618506      15.94032413      12.43701186      -0.12836421       0.19893730       0.09904404      -1.73026121       0.58921432       2.05751920
H      -16.72319196      39.35658502      -2.46245852      -0.12755076      -0.15942928       0.24563316      -0.26230621      -1.60235953      -1.30224752
H      -17.17300844      18.42075254      -2.65527475       0.19719206       0.25149654      -0.10137317      -0.80672598       0.30125773       0.11195546
H      -16.98098035      19.42077173      -4.13549594      -0.20972107       0.06503665      -0.09219449      -0.37421942       0.43704993      -0.88739336
C       -8.47876328       4.62555323     -10.46153282      -1.16026444      -0.32105947       0.77624923       1.59277821       1.47916126      -0.17276517
C       -9.68781045       3.80001318     -10.49268015       0.37078084      -0.05702459       0.37625533      -1.72033226       0.62142426      -0.66692054
O       -9.76610682       2.59923514       8.76693474      -0.30090287       0.28392608       0.22762719       0.28553665      -1.29012084      -0.16264609
O      -10.86042172       4.45180628     -10.77255223       0.76931045      -0.36952162      -0.12185272       0.55871153       0.31440771       0.18440288
H       -4.37406867       1.70448931     -36.13074046      -0.17275250       0.41188632      -0.16783321      -0.54590470       0.28712845      -0.75682139
H       -8.01405035       4.71793625     -11.49021942       0.27711037      -0.53844598       0.11438569      -0.18906419      -0.44675070       0.98586428
H       -7.77558822       4.33014589       9.48989698       0.09107088      -0.07002125      -0.21132453      -0.22154853      -0.62431419      -0.52266955
H       -8.65839244       5.66800363     -10.16766280      -0.12583282      -0.06956591       0.51563416      -0.45661750       0.17075014      -0.12098666
C        8.14169084      11.67967958      22.38787437      -0.06116748      -1.06618245      -0.63674109       0.29621196       0.88510025       0.33851001
C        7.03141779      12.19883201      21.51457379       0.34194021      -0.49421444       0.63427830      -0.95913339      -0.68956161      -3.01093268
O        5.97855190      12.70694265      22.09730266       0.26184752      -0.96323221       0.27416101       0.58822179       0.73979205       2.76661944
O        6.98778158      12.06038450      20.24526693      -0.90846009      -1.52468192      -0.15603829       1.09459519      -0.16075364       1.50907242
H        5.06645041      12.55587408      21.62397494       0.20823385       0.29846669      -0.16594062      -0.15573990      -0.39594373      -1.25800335
H        7.82057535      11.55014609      23.42778270       0.03756331       0.03195001      -0.19540374      -0.21346043      -0.43511504      -0.15254235
H        8.93675273      12.43170597      22.48214849       0.35712732      -0.36431611       0.18210912       0.04815893       0.23900840      -0.35192364
H        8.62583321      10.81288949      21.94581979      -0.19908912       0.18465962       0.05519101      -0.21412098      -0.30153355       0.14454353
C        7.75072734      16.09275551      11.40883661      -0.96861834       0.82291273       0.40672554      -0.59134614       0.58195639      -0.45365542
N        7.55844326      16.61403868      12.74230969      -0.15728010      -0.57454796       0.32118520       2.35445189      -0.57829690       2.34738636
C        8.44088351      16.62162757      13.93463717       1.00162568       0.20564781      -0.30639150       1.08583426      -1.12168384      -2.27018380
C        7.78463125      17.22104271      14.94790521      -0.58944640      -0.00853422      -0.53867439      -2.14086008       0.66202956      -3.30043221
N        6.54079568      17.64979936      14.36109688      -0.62841969      -1.33827664       0.51289040      -0.00058010      -0.18247390       3.26547718
C        6.42695602      17.11276022      13.17149621      -0.18121160       0.14168334      -1.79781777      -2.18324161       1.53618622      -0.70540369
H        6.91614179      15.43837540      11.22640501      -0.29059094      -0.17982807       0.10677323      -0.26732534      -0.72665876      -0.19998640
H        8.69524211      15.61380689      11.37936698       0.23283658       0.18441004       0.33678385       0.86534107      -0.63191193      -0.34275773
H        7.67119987      16.86149446      10.61580755      -0.21916628       0.09873403      -0.20203530       0.19471821       0.02519298       0.52148497
H        9.47477434      16.17641624      13.97918841       0.10640008      -0.30104204      -0.05736721      -1.37493491       0.51307297      -0.70189857
H        8.09633151      17.26722185      15.93594019      -0.01528158       0.07830658       0.03222546       0.06577092       0.50891250       1.81326997
H        5.44855161      17.14434115      12.65497802       0.44474964      -0.05218026       0.07613232       0.83738965      -0.23363473      -0.11830682
C      -25.40596098      29.96606218      29.19040427       0.65894865       0.39485277      -0.08213974       1.57832003      -0.74576735       1.03107190
N      -26.53906948      29.11454463      29.47049638      -0.10823606       0.46949887       0.27949707      -0.82287395      -0.37334871       0.11983839
C      -27.85139160      29.28145195      29.10539653       0.49401634      -0.59850972      -0.09996025       0.16486768       2.06618571      -2.07692385
C      -28.58714039      28.30985490      29.65983044      -0.31849469      -0.11240915       0.22612670      -2.31689739      -0.49516344       1.51639581
N      -27.76357284      27.50692786      30.41930665       0.90622303       0.01258078      -1.54969195      -0.41052777      -1.07710767       0.05625284
C      -26.55223523      27.98038304      30.23432466      -0.13870482       0.53504012       0.00031021       0.25618398       0.74661350       0.16014963
H      -25.64723740      11.57208356      28.48211467      -0.07032243      -0.18656269      -0.27599337       0.05960843       0.31246364      -0.67164612
H      -24.62481689      10.18068003      28.74815885       0.04411651      -0.09660365       0.09034073       0.06919633       0.15650581      -0.15224533
H      -24.94487259      30.43562503      30.11319866       0.33380941       0.19408780      -0.19305685      -1.08174288      -0.55036163      -0.96090341
H      -28.19139378      30.05344151      28.41303831      -0.08888331      -0.04334600       0.19500029       0.35184145      -0.24379456       0.35810518
H      -29.72812041      28.33837697      29.77789895       0.08616868      -0.17213572      -0.02431525       2.14400625      -0.46902603      -0.26434520
H      -25.65358848      27.69042709      30.69695104      -0.02312034       0.09578402       0.20782062       0.85410225      -0.65281707       0.63740325
C       14.95527792      19.82451901      11.87372054      -0.87728980      -0.08549381       0.66371491      -0.22662479      -0.45866251       0.18679655
N       14.34095603      18.53681465      11.59523379       0.53388500       0.98911395      -0.53258822       0.02321309       0.91301668      -0.94462270
C       15.08151807      17.69056556      10.78639032      -0.04322918      -0.09862864       0.64769900      -2.23088264      -1.63877058       0.96817863
C       14.23067069      16.61755056      10.57477231       0.77803597      -0.06903306       0.76106538      -0.16010317      -1.02251852      -2.06482482
N       12.96462497      16.92108592      11.05766840      -0.36305729       0.43896724       0.55333917       0.72526413       0.33067560       0.78933901
C       13.03743162      18.12402388      11.67385775       0.17788233      -0.36299175       0.01234480       2.72896290      -1.60799170      -0.97995532
H       15.58019312      20.17151042      11.08478302       0.33802834      -0.19199094      -0.01438596       0.13685431       0.10263321      -1.26225066
H       15.64815044      19.78446952      12.66271218      -0.27888911      -0.09647496       0.11700822       0.99148595      -0.49485844       1.63805199
H       14.24425882      20.55034940      12.10532926      -0.00594832       0.25781526       0.12615927      -1.57670426       1.21871459       0.28874725
H       15.96810038      18.04143893      10.31807884       0.07004778       0.19978826       0.19246398       0.65781736      -0.12058434      -0.21440710
H       14.30590094      15.74820071       9.87495032       0.13523624       0.16678834       0.47557437       0.29898006       0.72226542       0.84428632
H       12.25378167      18.62024340      12.12218779       0.07224297      -0.36781435       0.05216042      -1.38905799       1.07883871       0.97732556
C       26.33144593      13.78979429      35.76775287      -0.66066289      -0.39077102       0.51519762      -3.26824474      -2.67574644      -0.09334639
N       27.40003579      14.25188976      36.49203504       0.12736600       0.74396698      -0.67978296       1.85301650       1.59768808       1.41118169
C       28.54604114      14.78982228      35.92137328       0.44454833       0.33419019      -1.28367351       0.69938374      -0.35158536       1.94702411
C       29.36914540      15.03616162      37.00353210       0.30893963      -0.51379206       0.70877096       1.01626706       0.73123890       1.47915685
N       28.65199794      14.80201882      38.19511885      -0.17337580       0.76825641      -0.42438010      -1.05763960      -0.57043874      -2.37128592
C       27.44733425      14.31768620      37.84701084      -0.39830895       0.20633894       0.37020318       1.31931186       0.24322031      -1.09711778
H       26.00217782      14.47855260      35.00754812       0.20614495       0.12801033      -0.53039280      -0.44172105       0.57584572      -0.13942295
H       25.51627851      13.50533398      36.53933600      -0.17331024       0.22770046      -0.24132923       0.86581063       0.49468207      -1.54310989
H       26.61572330      12.87109743      35.23495536       0.04005778       0.24050852       0.14270663      -0.17901140       0.03759594       0.04275668
H       28.63583037      15.01696594      34.87524656       0.02882056      -0.06108606       0.16799898       0.02979367      -0.08832311      -0.08971310
H       30.44173403      15.32563581      37.18586182      -0.08992279       0.18364345      -0.05505449      -1.30345321      -0.13827243      -0.81033820
H       26.67922781      13.92762341      38.46772869      -0.34148766       0.24242492      -0.27253180      -0.63053924      -0.28897280       0.68573987
C        2.48667118      29.31832890       5.03279111       0.31782533      -0.73663342       0.08893164       0.10865676      -2.78194642       0.22113383
N        3.68386245      29.69471779       5.76910196      -0.39112212       0.23013537       0.01749230       1.50060344       0.00115651       0.48412541
C        4.38145124      30.97526211       5.78700151      -0.82222857      -0.06892609      -0.04586899      -2.74294186      -2.35405540      -1.21469367
C        5.54942896      30.69251422       6.36693687      -0.37608637      -1.14120365       0.38341273       0.83322245       0.44744217       0.31657663
N        5.60616671      29.37616608       6.69825313      -1.09052997       0.34255855       0.51463463       1.21480334      -1.30121160       1.10846889
C        4.47297302      28.76291048       6.43201916       0.45344822       0.00597363       0.22831941      -1.78351521      -0.02893209      -1.89214635
H        2.23557724      30.06224895       4.28835859      -0.09065170       0.07742626      -0.12845388      -0.34438139       0.09271684      -0.17684373
H        1.78117690      29.10382030       5.82101896      -0.12696940      -0.34087948      -0.07917880      -1.18866563       0.62771070       0.06775765
H        2.54307638      28.21618719       4.60088630      -0.10458709       0.41436431      -0.03017219       0.53198260       2.34385514       0.18656850
H        3.93999768      31.80924354       5.24266646       0.01366820      -0.11102706       0.21784540       0.37175757      -0.06218445       0.31687376
H        6.28161046      31.40488109       6.61922325       0.11477866       0.00782637      -0.26024541       1.08122897       0.51390910       0.29725778
H        4.27219412      27.63589031       6.50772507       0.28265459      -0.07600400       0.19402599       0.09419030       1.98863113       0.03897458
C        7.14315830     -12.82053756      -7.75949995       0.83845375      -0.54154346      -0.57843215      -1.13332129      -1.81939054      -1.54301977
N        5.72683640     -13.20677558      -7.48350201      -0.16243772       0.37881227      -0.24615979       0.88298476       0.83870089      -1.02287340