640
Lattice="19.152215 0.0 0.0 0.0 19.152215 0.0 0.0 0.0 19.152215" Properties=species:S:1:pos:R:3:momenta:R:3:forces:R:3 energy=-80124.90625 stress="-0.016503717750310898 0.0022114161401987076 -0.0016873092390596867 0.0022114161401987076 -0.016759628430008888 -0.002063828520476818 -0.0016873092390596867 -0.002063828520476818 -0.020800692960619926" pbc="T T T"
C       19.04939979       8.63556747       8.81014222       0.61418054       0.04174359      -0.56401113      -1.02309048       1.74653268       0.09158015
C       18.97864199      10.14941948       8.82959419       0.57750453       0.58702094      -0.98106272       1.72051573       3.16353917       0.73717463
O       18.03359098      10.92518030       9.16433222       0.13399691      -1.18274638       0.40315875       0.64302385      -1.95992649      -0.81501311
O       20.21687010      10.74048769       8.51332632      -0.77254360      -0.40558918       0.11956294      -1.91774559       0.08417001      -0.39371601
H       -7.54925788      27.53354591       3.20882373       0.35200229       0.02681576      -0.05486399       0.19716495       0.70041823      -0.16430672
H       20.10189515       8.36969288       8.64645191       0.10728497      -0.02503699       0.02105776      -0.71917564      -0.45366603      -0.33604950
H       18.26890596       8.44453899       8.05858050      -0.14294168      -0.26489994       0.01452453       0.56718767      -0.93153250      -0.34797657
H       18.62015121       8.28153214       9.75697282      -0.06127851       0.22865081      -0.21157823       0.21357353      -0.14331797       0.02263466
C        6.68689814      -3.30398727       5.29255814       0.45699386       0.06580629       0.01863794       0.38491642      -0.12241077       0.23364663
C        7.26107872      -2.71784774       4.00076083       0.09158899      -0.71028623      -0.96184897       0.34797585       0.17212087       0.99396241
O        8.01245372      -3.48824530       3.31525527      -0.69435133       1.25278847      -0.95008395       0.09990740       0.30813387      -0.29385185
O        6.93919342      -1.52600844       3.66207451      -1.06163990      -0.47819232       0.47356437      -0.29587272      -0.30765164       0.00532633
H       20.79081706      13.46945173      -5.50062102      -0.09900793      -0.06060291      -0.05199486       0.26707530       0.59433275      -0.09364685
H        6.30459837      -2.49995360       5.96675755       0.01536523       0.18503863      -0.11236116      -0.73992372      -0.69796574      -0.88520914
H        7.46829115      -3.74802079       5.93703515       0.24637825       0.27697931      -0.30658778       0.07597356      -0.12903026      -0.53576267
H        6.04448624      -4.15722768       4.92408905       0.13422423       0.14065279      -0.15976974       0.00830705       0.90897334       0.91507471
C       15.40627266      17.30658207     -20.19785425       0.88081919      -0.34413240      -0.85524455       1.58384025      -1.55915022       0.42986470
C       14.76590725      16.13300345     -19.49372760       0.35643434      -0.31929360       0.27729917       0.44675893       1.75224447      -1.47901034
O       14.02869264      15.28301503     -19.95541692      -0.76024889      -1.44329085       0.61301454      -0.52170640      -0.89615226      -0.33462670
O       15.04355323      16.21349644     -18.21985704      -0.08165046      -0.45263805       1.09632892      -0.12435204      -1.94201136       2.18651485
H        0.91927929      11.82333158     -30.16106335      -0.19912590      -0.06689416      -0.14782243       0.50295913      -1.47589421       0.46797127
H       15.04629926      18.17056200     -19.70561802       0.08731078      -0.00067448      -0.16841321      -0.21258003       1.01872182       0.49411899
H       15.25970730      17.40645551     -21.23080630      -0.01851764      -0.05250413      -0.23949017      -0.58484310      -0.26769501      -1.83158183
H       16.52115235      17.20898928     -20.04345956      -0.02039701      -0.37368527       0.11652738      -0.73971283       0.33762601      -0.15115042
C      -14.85563864      27.55639388     -12.18750824      -1.00740329       0.55902714      -0.46436749      -1.57605290       0.09374464       2.26094437
C      -14.71305962      26.05224228     -12.29988954      -0.16837102      -0.07576225      -0.49994957      -0.95946312      -1.73389101      -0.04342580
O      -15.43816708      25.14949789     -11.79544164       0.23289078       0.08179099      -0.09228229       0.69761181       1.78406048       0.14422122
O      -13.74334352      25.72717771     -13.14173219       1.20169033      -0.58762514      -0.39533392       0.68831968       1.22303629      -0.31736815
H        3.21083868      15.19894188      -7.13635562       0.02461747      -0.18778895       0.07246820       0.78937644      -0.77812433       0.28334948
H      -13.86237220      28.04142061     -12.02454720      -0.00214770      -0.50093914      -0.14463422      -0.73461437      -0.21353894      -0.73957241
H      -15.52739252       8.65921899     -11.27985491       0.06159663      -0.17340122      -0.23351919       1.05441475      -0.47237241      -1.23581958
H      -15.47478828       8.71265919     -13.05498600      -0.26931222       0.18301224      -0.17227430       0.79879755       0.28282458       0.09081788
C       12.54545515      13.28396493     -22.39040407      -0.85257053       0.35731500       0.31555777       0.06063461       0.43932247       0.59067374
C       13.52951396      12.19309770     -22.56037279       0.19388151       0.08105418      -1.15945628      -0.22291595       0.22652632      -0.23089729
O       13.62927066      11.26628345     -21.77462974      -0.10832193       1.35332995       0.24954315       0.10480493      -0.63540578       0.92616463
O       14.30069084      12.15716383     -23.65084761       0.78508253       1.37530487      -0.26492882       1.17231345       0.47193706      -1.20661974
H        4.90230637       7.96257052       0.89110946       0.25475779       0.22263122      -0.02892443      -0.96159101       0.02701792       0.53152978
H       12.86132335      13.80642671     -21.46375044       0.01548783       0.27407085       0.23523915      -0.66109347      -0.37544683       0.14795296
H       11.59920349      12.69694286     -22.35259216       0.18964241      -0.16889549      -0.03447555       0.00839836       0.80877328       0.42818239
H       12.51368514      14.10017866     -23.11144157      -0.14331050       0.34855570      -0.17280029       0.15696351      -0.39308578      -0.66897589
C       -2.00049516      -6.53129672      17.81485496       0.08163312      -0.18080291       0.33593809       0.78957283      -0.40847257       0.68744743
C       -0.45274455      -6.11316732      18.09631053      -0.63574671      -0.15982828       0.22759987      -1.72192490      -0.63932520       0.03287613
O        0.49649462      -6.64617890      17.37646111       0.73423049      -0.70489887      -1.16103368      -0.39179027       0.09478208      -0.41008317
O       -0.27016759      -5.35774075      19.05549979      -0.06751711      -0.45949253      -0.29950984       0.23144537       0.62148428       0.25314581
H        9.12081579       2.58642392      -7.34417447      -0.03974468      -0.05459117       0.02502514      -0.36773366      -0.32573056       0.17156264
H       -2.36747927      -7.15273443      18.70213493      -0.32100963      -0.10704389      -0.09558024       0.54039949       0.53887904      -1.15383220
H       -2.11705094      -7.09164671      16.86214766      -0.10095241       0.00614786       0.13953117       0.02006796       0.15621538       0.55597854
H       -2.67513467      -5.65288569      17.82329317       0.22121020      -0.08490801      -0.06638770       0.41072905      -0.06319109      -0.10573352
C      -16.67954872      -0.28723247      23.30293929      -0.62351382       0.02046313      -0.19147117      -1.37579858      -2.93979931       1.34701478
C      -15.35012400      -0.92134708      23.69946910       0.07159095      -0.57206731       0.01776605      -1.69560397       1.56352258      -0.64449316
O      -14.86384028      -0.90201297      24.81067360      -1.59641765      -0.03878063      -0.66463238       0.59838724      -0.10287839       1.45535052
O      -14.80121597      -1.41981213      22.61623224       0.19917532      -0.56969967       0.14728375       1.88034749      -0.88576776      -0.41574562
H       16.81485749     -15.05265937       7.97147098      -0.01962423       0.08789878      -0.30345883      -1.27298319       0.55977440       0.37142426
H      -16.63351659       0.53029534      22.67093842       0.23058711      -0.14826668       0.21048128       0.51542985       1.61601806      -1.59315681
H      -17.40892914      -0.01830478      24.07452183      -0.09618893      -0.23875978      -0.24326971       0.56563365      -0.01659343       0.70038188
H      -17.23059378      -1.12284509      22.80819804       0.18667741       0.09621053       0.60885468       0.18387321       0.57823730      -0.29374549
C      -10.51179602       7.15581043       4.92623798       1.11205660      -0.37114630      -1.33347600       0.19851911      -1.18667543       0.33822516
C       -9.66946196       7.72089027       3.80392327       0.12202116       0.49447368      -0.90763393      -0.19181037      -0.42946720      -0.64972830
O      -10.04654809       7.66852151       2.58633335      -0.75204058       1.68386472       0.88380697      -0.50684309      -0.32412541       0.29312140
O       10.58276004       8.27389370       4.15054898      -0.27082776       0.35350650       1.82986961       1.14112937      -0.17862578       0.10848103
H      -14.37201900       9.86419411      -8.64743974      -0.15891496      -0.17485706      -0.17642664      -1.06582499      -0.38837940      -0.06579709
H      -10.12839377       7.62216060       5.83110465      -0.29036796       0.31713123       0.15868263      -0.76822925       0.31542185       0.36009058
H      -10.51371941       6.06965533       5.19498989       0.26780733      -0.12815852       0.07543648       1.38473630       0.23882619      -0.71638811
H      -11.58933062       7.12495622       4.76220435      -0.13318440       0.11630139       0.07579160      -0.33185598       1.46602499      -0.02433562
C       17.46650542      -8.67794227       5.11033910      -0.79963097       0.01196566      -0.89746303      -0.77791524      -1.54446006      -0.60646081
C       18.20348698      -8.87316921       3.78786618       0.11794634       0.26566051      -0.16335784      -1.85812259      -1.32673252       1.96482539
O       18.25394344      -7.83790121       2.99342621      -0.22888038       0.39382149       0.03456212       0.71566558       0.96871793      -1.34699714
O       18.57740031       9.14370761       3.51900592      -2.07803082       0.05940737       0.41612261       0.93362755      -0.06952471      -1.17694068
H        7.61240841      19.77238477      -1.86842480      -0.07836993       0.15257032      -0.15621007      -0.71762133      -0.68681836      -0.47370356
H       18.21946616      -8.82152182       5.86028447       0.12155548       0.27010424       0.01897909       0.39797217       0.20837244       0.92320108
H       16.66346576      -9.49933836       5.29781775       0.26159450       0.04396965       0.53673985       1.19924986       1.31699049      -0.52032369
H       17.04772110      -7.69848047       5.08668198       0.02139158      -0.09185716      -0.07657583      -0.61684513       0.86599040       0.68495822
C       -8.90559668      14.17875101     -11.04022727       0.67428395      -0.40444190       0.35432101      -1.40098262       1.49238336      -0.38846403
C        9.07432722      14.86568307     -10.42778137       0.61082377       1.27514732       0.04340917       1.93178415      -2.21350479       2.71061182
O        8.85050698      14.61678810      -9.07541228      -2.50166983      -0.90962589       0.29335892       0.11935008       0.20542818      -0.23423839
O      -10.86093959      15.54173870     -10.99198675       0.64151911       0.25907354      -0.14787312      -2.24879885       2.37929225      -2.14038992
H       37.14598253      15.54111462      -7.61693353       0.13475501      -0.13675321       0.10037645      -0.19755155      -0.34687829      -0.99081236
H       -8.41026058      13.62224784     -10.32570991       0.00318458       0.22884272       0.06560130       1.32113647      -1.59745502       1.23897910
H       -8.27760399      14.91537217     -11.48132686      -0.21388768      -0.05141142      -0.30096402       0.81950361       0.89334965      -0.34692657
H       -9.33540223      13.66063060     -11.85907645       0.05262865       0.35481044      -0.12029746      -0.21619657      -1.19239342      -0.97132170
C       30.55235641      16.11785544      13.24089571      -0.42424399       0.88610033       0.24339755      -0.89035875       0.78073657       0.90726900
C       31.73836640      15.56194641      12.56588205      -0.73833863      -0.19928708       0.80253356      -1.02153707      -0.65396607       2.72310305
O       32.26197445      14.57565138      13.06459134       0.02055295       0.08433890      -1.02841726       1.34930444      -0.43658623      -1.28359985
O       32.06362134      16.35779527      11.54756312       0.61288023      -0.44548440       0.92572674       1.36576068       0.09894311      -1.76888967
H       24.93761185     -13.52842197       6.16365951       0.03569176      -0.24649300       0.01523442      -0.20985632      -0.68189204       0.05638173
H       30.68882925      17.17793401      13.29291131      -0.24145078       0.15505621       0.14403883      -0.13248628       1.25460446      -0.41201419
H       30.43607650      15.89341184      14.32284197      -0.37269846      -0.07503383      -0.10618807      -0.11844237      -0.82039863      -0.66312248
H       29.67912873      15.91673883      12.61505273      -0.03173391      -0.19975470      -0.11961352      -0.44162363      -0.09876263       0.27922744
C       -1.68916124      -3.54311370      34.36634546      -0.29108528       1.15241170       0.17999019      -0.67340207      -0.05342490       0.41695443
C       -2.06127487      -3.50776344      32.96913608      -0.59084834      -0.29659973       0.20192308      -0.89083481      -0.54313165      -2.22615814
O       -1.66899022      -2.54587524      13.08579768       0.21534724      -0.44323282      -0.94564766      -0.71656233      -2.11687660      -0.25282288
O       -2.89354511      -4.57704482      13.44085585       0.77885178       0.84477503       0.80157967       1.63819981       1.82945514      -0.54016334
H       -7.15052658       9.99162657      30.94886446      -0.06473701      -0.31956478      -0.20887721       1.31688380      -0.20675689      -0.44048244
H       -2.59410015      -3.90056493      34.88716143      -0.05397553      -0.10799050      -0.03111479       0.33677924       0.37729192       0.42006287
H       -1.47784260      -2.47041459      34.43168332      -0.28269896      -0.26405263       0.21751484       0.50438452      -0.30498692       1.58381248
H       -0.86572832      -4.25049786      34.55731908      -0.06064821       0.02584535      -0.08899943       0.12578504       0.47915050       0.04767797
C       19.92156594       3.89465139      27.84324071      -0.32198193      -0.09835346      -0.67052913       1.59104168       1.85557008       3.68426061
C       18.53412037       4.35397053      28.06697800      -1.01661811      -0.46903316      -0.43614446      -0.82571411       1.03826153       0.24294257
O       18.12979826       5.14861392      28.92937952       0.86140430       1.40006798      -0.01697907       0.36031526      -0.74371314      -0.96017015
O       17.72908827       3.77333146      27.13566636       0.64832211       0.67034530       0.12924423       0.46239543      -0.51000959      -0.34943682
H       -5.38426541      16.12870731      30.25721731      -0.22984675      -0.05402474       0.08652019      -0.05152783      -0.21128100       0.43517366
H       19.95650711       2.87498559      27.61898085       0.15015594       0.30483000       0.03737087       0.09247458      -1.59444499      -1.28733945
H       20.39073373       3.90728397      28.91189058       0.12436706      -0.00181697      -0.12016114      -0.45131806       0.15857486      -1.49705517
H       20.54156385       4.59808997      27.25455094       0.14388071       0.27956033       0.10644403      -0.29612133      -0.44851121      -0.18775657
C      -15.96035494      14.52721048      -2.95269770       0.22955657       0.60759457      -1.40023585       1.13200188       0.13495332      -0.05508065
C      -15.55076170      14.65813154      -4.43379317       0.34287878      -1.24275304      -0.25265332       2.16684985      -0.19028816      -0.23933113
O      -16.38594119      34.11363425      -5.36339939      -1.14028853       0.44460602       0.59175577      -1.17597675      -0.16675088       0.47798908
O      -14.31439168      14.41256916      -4.69869813      -0.33133198       0.25447891      -0.52273173      -0.51660633      -0.21625155       0.12612242
H        2.33529078      18.99853488      11.83321762      -0.13886722      -0.00727525      -0.20775019      -0.16728011      -0.56943691       0.12041885
H      -16.27578766      34.59861474      -2.45622560      -0.09605702       0.03702744      -0.03319340      -0.13755858       0.30813408      -0.24213564
H      -15.14711916      14.09134314      -2.31620598       0.10052855      -0.35400904       0.07117647      -0.26170439       0.43630058      -0.61908162
H      -16.74938306      13.82965179      -2.91409418       0.06846020       0.13075209       0.14197403      -1.39334130      -0.91782629       0.23955797
C       -8.51944120       7.93431853     -10.38541036      -0.68410690      -0.45865619       0.95932937      -0.93521643      -2.39235806      -0.83845443
C       -9.92140753       8.49755189     -10.33945207       0.07593296       0.20473759       0.84850835       0.61110044       1.09465933       0.67181593
O      -10.89685667       7.93269323       8.37056643       0.40427525      -0.28555257      -1.02018843      -0.55473351      -0.21984082      -0.59205008
O      -10.08291729       9.75677843      -9.75392381       0.92834740       0.35540155       0.58937715      -1.52822435      -1.96336138      -2.65728402
H       -1.69083239       0.82267889     -34.81390489      -0.18222998       0.36375116      -0.04752506       0.24708770      -0.35393882       0.39499143
H       -7.83286052       8.67330627     -10.61560780      -0.11743803       0.05855239      -0.01140216       1.51861072       1.84943962      -0.25926650
H       -8.28655362       7.08225400       8.02322165       0.25788113      -0.02556866      -0.29417707      -1.11917889       1.26044726       0.69189894
H       -8.25660507       7.47191442      -9.45363299       0.43761036      -0.06438858      -0.14027496       0.11961581      -0.04948796       1.02292955
C        8.87649748      10.83394423      24.66648228       0.45535286      -0.09731365      -0.68926873       1.17572212       1.12492609      -0.57038975
C        7.62606432      11.15125509      23.98960323      -0.95357256       0.21580115       0.22447990      -1.13811529       0.27502429      -2.05670309
O        6.87067964      10.07433450      23.75741677      -0.69501547      -0.56796530      -0.01757102      -0.44296461       1.31468511       0.08438700
O        7.39232346      12.33515560      23.59835339       0.95182077       0.36480630      -0.71806648      -0.18993011      -1.17880750       0.58141536
H        5.76246698      10.47343526      23.35721095      -0.40827226       0.32340089       0.41362118       0.54677987      -0.31057817       0.14810720
H        9.73086631      11.26162731      24.08868913      -0.19721554      -0.17110726       0.33468606      -0.46943238      -0.12595421       0.45460334
H        8.99229213       9.78916822      24.75755613       0.13427636      -0.05894088       0.14533789       0.27617493      -1.20454264       0.48557177
H        8.76092940      11.36793273      25.58567696       0.04206009       0.16284332       0.10154784       0.60209578       0.15050612       1.17333853
C        5.78847991      17.27212272       9.06409299      -0.81131932       0.10437804      -0.63922340       2.75045228      -1.02192235      -0.10042503
N        5.18011542      16.19746937       9.81817213       0.50794714       0.64137569       1.47303128       0.17733204      -0.75070345      -1.06867123
C        5.96119356      15.19499954      10.39695726       1.19098295       0.07860830       0.73583219       0.76815194       0.43697232      -0.42006087
C        5.21669600      14.69842191      11.40266776      -0.62140192       0.11814699      -0.01165077      -0.23395753      -1.15384650       0.60005784
N        3.95795808      15.18115068      11.26828920       0.71723844       0.96396749       0.27106677      -2.18828464       2.06501031      -0.30123281
C        3.91789637      16.16090068      10.29329493       0.25123539      -1.07169491      -0.34723891       0.71204525      -0.82041442       0.95538372
H        6.60011968      16.87067378       8.35649347      -0.03551145      -0.08263514      -0.15340755      -1.13965547       0.36126965       1.21094739
H        6.26174456      17.90877086       9.81995035      -0.09603158      -0.05646513      -0.04424722       0.07583787       0.45990452      -0.39423233
H        5.10615832      17.78756554       8.47874641      -0.45865653       0.17636568       0.26198863      -1.64588785       1.24958849      -0.95087302
H        6.95644187      14.85851731      10.03078267      -0.03557747      -0.21375328      -0.02047968      -1.12792587       0.68774885       0.26608095
H        5.51927004      14.12986285      12.26483404      -0.10832441       0.01803714      -0.03556933      -0.12909392      -0.17716485       0.12890941
H        3.12429615      16.92942273      10.09270829      -0.07383777      -0.17759522       0.17996636       0.71040535      -0.60481745       0.23196790
C      -29.27141257      26.81419424      35.53529716       0.98399446       1.65771835       0.65862159      -1.18934727       1.20992434      -0.70887178
N      -28.81265929      28.18360773      35.84805441       1.11157521       1.99597569      -1.61046486      -0.42863178       0.09420824      -0.11433113
C      -28.08643062      28.52381081      36.98498067       0.12646859      -0.22921022      -0.26198299       0.53779483       1.16061640      -0.95391130
C      -27.75730032      29.86688569      36.75560881       0.79197933       0.38723376      -0.74416515       0.51111984       0.69766742      -0.33495027
N      -28.36008376      30.39568565      35.61311604      -0.39687677       0.10181750      -0.64025072      -1.26254511      -1.89919043       0.08402450
C      -29.05121179      29.34130287      35.10812041       1.18328864       1.43259926       0.05394507       0.34595159      -0.37511945      -0.73545140
H      -30.37597310       7.71841611      35.55650133      -0.27980548      -0.32021735       0.22354087       0.32803386      -0.40448439       0.04136711
H      -28.90314522       6.97146587      36.26046222      -0.22691319      -0.11833100       0.19095613       0.25110051      -0.49555624       0.72815031
H      -28.99540881      26.48120690      34.52709964       0.53228908      -0.19907796       0.06735358       0.27162635       0.33302426       0.14898103
H      -27.87498511      27.81789897      37.79241374      -0.04464575       0.21092485       0.09301287      -0.08429745       0.30413088      -0.41862127
H      -26.92527735      30.51379493      37.05229804       0.13110218       0.05104032       0.33998326      -0.24529755      -0.60830867       0.75494885
H      -29.69720899      29.30506303      34.17060306      -0.14146783      -0.10220727       0.31617043       1.06137931       0.05732822       1.60544395
C       18.47749073      18.61300657       9.83792768      -0.87240167      -0.53030678       1.04934393      -0.16067404       2.57507610      -1.75221455
N       17.03894737      19.01205876       9.91086233      -1.12564700       0.21991367      -0.27609242       0.80524468      -2.16095281       0.70356387
C       16.48884268      20.07345385       9.32107403       1.02217466      -0.74423354       0.23381828      -1.33840477       1.58670855      -1.42190099
C       15.11445796      19.81021750       9.26112994      -0.77590528      -0.03317994      -0.07241752       1.04620099       1.14476383      -0.00298443
N       14.81894043      18.69845171       9.98053970      -1.73132080      -0.25012241      -0.41561761      -0.22459340      -1.57404160       0.12459442
C       16.00570936      18.17961551      10.31031751      -0.10813264       0.46434500       0.36613348       1.50950968      -0.36668259       0.97874743
H       18.72428843      17.59837753      10.05326922       0.14582648       0.13896047      -0.01193260      -0.47257397      -0.95094192       0.21117857
H       18.99108224      19.26744423      10.54371612       0.10114086       0.05059955       0.34837373       0.46017954      -0.00975347      -0.07950395
H       18.80882846      18.87346154       8.76471257      -0.15104459      -0.02726828      -0.15238556      -0.24942118      -0.44292933       1.58973968
H       17.00665228      20.95453545       8.94494630       0.07379523      -0.11210587       0.12191026       0.12540257      -0.43932131       0.23590644
H       14.44083327      20.33213600       8.58896216      -0.24022413      -0.07665719       0.15836300      -0.25759333      -0.09811586       0.28302592
H       16.40897678      17.30525828      10.89648856       0.23029223      -0.27309146      -0.35764971      -1.53938580       0.78089386      -0.57458889
C       26.81974504      14.10551695      35.14907215      -0.15042736      -0.04969040      -0.66821185      -2.00355625      -1.85870528      -2.25464892
N       27.72677668      14.88225744      35.91159021       0.09212124      -0.30772239       0.42853621       0.65364379      -0.67240715       0.99825102
C       27.67771652      16.22579558      36.05276562      -0.14880429      -0.64236083      -1.06619115      -0.72980553       1.78180075      -0.30660814
C       28.49286482      16.53469487      37.10167480       0.25470657      -0.11464346       0.18760831       0.56594163       1.30927575       0.77254277
N       29.07549026      15.39016428      37.59895032       0.19846540       0.93473222       0.59295147       0.65590370       0.96633315       1.23936296
C       28.62836090      14.41857951      36.85221692       1.40889478      -0.51932795      -0.57888120      -1.59568918       1.65465093      -1.01037610
H       25.69289169      14.10855812      35.47281178       0.36468862       0.27176554      -0.38293700       2.06679559       0.28335112      -0.33339742
H       27.15581736      13.02705147      35.06541038      -0.31655126       0.17634007      -0.19665113      -0.20642932       1.00425696       0.44424003
H       26.86681059      14.45859959      34.07203569       0.13144536      -0.57977144      -0.08254191      -0.34073600      -0.17509089       1.03781533
H       27.04916027      16.91489122      35.46704914      -0.22393382      -0.20422232      -0.14970266       0.40445006      -0.75177360       0.17543632
H       28.71707018      17.53684722      37.50999200       0.01456651       0.14144125      -0.07241019      -0.08352936      -0.66591620      -0.19214848
H       29.05951779      13.50223226      36.80619711       0.15929354       0.00280420      -0.06266716       0.87997216      -2.99847817      -0.20113587
C        5.39613754      31.76004492       7.05620355      -0.06063790       0.11521562      -0.37646508       1.56071162       0.34486276      -1.61715746
N        5.79699822      31.05179403       8.26196229      -0.39303224       1.21947793      -1.62386856      -2.63710284      -0.17294645      -0.17705011
C        6.92600518      30.75987669       8.92113784      -0.54730492       0.73026628       0.79570152       1.57066989       1.11331928      -0.48168972
C        6.55204633      30.05489463      10.00948695      -0.49555925       0.01738630       0.49307383       1.78801346       0.52355379       3.64647508
N        5.21423208      29.82024322      10.02570244      -0.88933591      -1.01661577       0.91418435       0.58471036       1.64261198      -2.55324221
C        4.77207673      30.47291948       8.90683838       1.14658517       0.90250938       0.64621899       0.06918710      -0.92605072       1.55929971
H        5.10955437      30.95056504       6.33656828       0.15757223      -0.18095796      -0.15552601       0.77684736       0.84490639      -0.07768869
H        6.22937838      32.47858300       6.73108213       0.26638395       0.21221097       0.17317337      -1.16872048      -1.22599709       0.08174264
H        4.46888897      32.30025274       7.18888088      -0.20275118       0.20834356      -0.04342950      -0.26296079       0.51515329       0.52504820
H        7.84094485      31.30183233       8.71240841       0.35482150      -0.06824467      -0.19571299       0.04114574      -0.44766381       0.05569112
H        7.01594712      30.29834449      10.99280794      -0.04748123      -0.10359064       0.16365919      -0.23275352      -0.99878716      -1.05034542
H        3.79403284      30.66041119       8.57339841      -0.01865124      -0.25616807       0.19651816      -1.40341771      -0.25229537      -0.11815253
C        1.02783497     -10.79430341      -5.77239733       1.30651820      -0.65559449       0.22586116       0.74791038       1.28125429       1.43303561