640
Lattice="19.152215 0.0 0.0 0.0 19.152215 0.0 0.0 0.0 19.152215" Properties=species:S:1:pos:R:3:momenta:R:3:forces:R:3 energy=-80126.9609375 stress="-0.017314255237579346 -0.0010375957936048508 0.00027200800832360983 -0.0010375957936048508 -0.019748806953430176 -0.0006403398001566529 0.00027200800832360983 -0.0006403398001566529 -0.018477872014045715" pbc="T T T"
C       21.21581926       7.00651120       4.51349574       0.00967297       0.62256426      -0.53403303      -1.82581317       1.50642049       0.10430987
C       21.43269057       8.28336166       5.30659872      -0.10604504      -0.03463717       1.23832973       0.31263199      -0.44305468       1.03497612
O       22.50748247       8.19508555       6.14424990      -1.09043982       0.88792891      -1.28867450      -0.08309817       1.07669246       0.46180391
O       20.68478241       9.25562629       5.32173874      -0.74963463       0.31618764      -0.83489345      -0.10766116       0.26415011      -0.21702310
H       -5.44065618      26.73641859       0.88028072      -0.10361457      -0.17322419       0.15974872       0.12293249       0.96577740      -1.09734368
H       22.05544990       6.37454202       4.72541365      -0.02280638      -0.23924726      -0.10423689      -0.01276987      -1.10412335       0.34581545
H       21.32472050       7.31600025       3.46203110      -0.17805102      -0.07760100       0.20809787      -0.23715204      -0.11582204      -0.06519716
H       20.08125077       6.69458658       4.69816990      -0.00384302       0.29389405      -0.11815404       2.58703279       0.07668209      -0.38253582
C        6.51424711       2.24531146       9.07378141       0.74383942       0.07638494      -0.47132207      -0.80762446       0.06315368       0.21169108
C        6.22163065       0.96358674       8.34212386      -0.03528787       0.26151658       0.49606140      -1.53162360      -0.88751733      -0.27185655
O        7.19705133       0.37338242       7.84000411      -0.61540713       1.83742307      -0.09240878       0.97944325      -0.59910226      -0.66612750
O        4.99341697       0.47969285       8.29899741      -0.55266899       0.81494262      -0.56477278       1.05742502       0.99517012      -0.24492651
H       20.60863527      10.75733252     -10.48219486      -0.09199520      -0.18341723      -0.03609110      -0.91973227       1.95299423      -0.07791427
H        7.07800546       1.95606476       9.98223305       0.08259180      -0.32295811      -0.10425226      -0.55914289       0.43855056      -0.00754578
H        5.60113167       2.84402299       9.12877152       0.15394328      -0.20141572       0.12388173      -0.00559930      -0.22460975       0.96036005
H        7.14871476       2.91715051       8.53146401       0.21933208      -0.01989471      -0.08154350       0.96996576       0.08525613      -0.71874958
C       14.36008648      13.02790698     -18.54585812      -0.38424837      -0.52331955       0.96152622      -1.38062739       1.54616487      -0.54302204
C       13.77193697      14.38462846     -18.24889086       0.03310195      -0.77703241       1.08911732      -1.43249583       1.88799036      -0.00825509
O       14.28894901      15.49477688     -18.49534608      -0.01355150      -0.82658701      -0.20790911       0.15605834      -1.53246486       0.26496625
O       12.48711492      14.31025099     -17.78633385       0.74756462      -1.43905259      -0.34487626       0.49595135      -0.36874211       0.17556363
H        1.07451555       9.16875753     -27.62701214       0.35951952      -0.14469996      -0.00248524       0.28072456       0.35795975       0.83709574
H       13.59696108      12.38570321     -18.93531255       0.17590095       0.20353038       0.02233077      -0.49533698      -0.54203010      -0.12583111
H       14.76793510      12.58966647     -17.71087137       0.37291178       0.32177143       0.12539973       0.91335183      -1.06631136       2.61441040
H       15.14329257      13.12056346     -19.22512843       0.28898870       0.30017124       0.09297773       1.44700444       0.30806050      -1.52423358
C      -10.31274185      26.91462110     -14.70474499      -0.31308450       0.28293323      -1.03548538       1.17981052      -0.89963061      -1.97372127
C      -11.02979577      25.61641987     -14.35253259      -0.14035740       0.11101895      -0.36809620       0.25202596       0.99096501      -2.77152991
O      -11.26592339      25.28169768     -13.21761198      -0.17966211      -1.83150591      -1.07656582      -0.46142715      -1.02114654       1.53062415
O      -11.40706440      24.95373391     -15.50466047      -1.62169005      -0.88084093       0.19342936       0.29606774      -0.14170125       1.27241361
H        3.06738646      17.42216139      -5.20289029       0.27197440       0.03527866       0.15483947       0.05146200      -0.18118066      -0.06164041
H       -9.62212537      27.14780005     -13.85125513       0.04298662      -0.02866365      -0.01196530      -0.64218450       0.33726656      -0.84948647
H      -11.08577520       8.49858816     -15.02858536       0.13552505      -0.06704990       0.10813476       0.59291267       0.01103960       0.71644139
H       -9.68593188       7.58640581     -15.69689974      -0.05874281      -0.01819622       0.11952020      -0.97447681       0.28527623       2.09309101
C       17.59204676      11.94330637     -21.08301900      -0.78281106      -0.15927416       0.31766275      -1.49444318       1.06382000       0.40487084
C       17.25645430      13.49161858     -20.79332631      -0.74119744       0.68615734      -0.00739388      -0.49975812      -1.12867498      -1.07918608
O       17.97814068      14.17165241     -20.02604143       0.87437832       1.07029700       0.93534235      -0.91457683      -0.47683287      -0.93659335
O       16.12247907      13.86982500     -21.40744793       0.32546009       0.08763557      -1.01366262       0.77310807      -0.26654422       0.42530194
H        4.40646358       6.89466904       0.87956767      -0.34223929       0.15061375      -0.21809093      -0.37731344      -0.28702313       1.01342249
H       16.84696717      11.54995781     -21.82102983       0.04542776      -0.07046712       0.12500673       0.23636085       0.12979393       1.10198343
H       17.44879221      11.51607440     -20.04037956       0.00334378      -0.12556447      -0.03568259       0.59190696      -0.37958133      -1.35498357
H       18.53816299      11.75724802     -21.60619026       0.17867774      -0.51178221      -0.17691615       0.38385227       0.14836335       0.88501883
C        1.97450294      -6.55231439      17.78745429       0.29760926       0.50828091       1.15349163       1.70276237      -0.23701513       2.82852244
C        2.42487274      -7.84273347      17.15922487      -0.21197302       0.87709137      -1.45897164       0.98737782      -1.03060567       0.66700315
O        3.40302230      -8.63240759      17.69354570      -0.61103334      -0.02588920       1.18694927      -1.27368808       1.66997480      -1.24706972
O        1.72858630      -8.11206866      16.17561358      -0.42202034       0.13836901       0.67774747       0.13050452      -1.32967448      -1.25509214
H        9.87405836       1.71577922      -8.49862658       0.24538059       0.01036803       0.04159422      -0.64845115      -0.65932405       0.63809991
H        1.21584192      -6.10284771      17.16581682      -0.09069197      -0.00515454      -0.10661836      -0.34988225       0.31858152       0.20567477
H        2.82152355      -5.85455348      18.00967251      -0.34905658       0.14569511       0.04727900      -0.45057765      -0.33815944      -0.29370755
H        1.62473002      -6.88277118      18.82140446       0.07542472       0.05642495      -0.29002927      -0.16563147       0.84013963      -0.98947674
C      -16.71432476      -2.80765591      25.73879630      -0.55606166      -0.74586466      -0.80969979      -2.12929344       0.47467214       0.88403398
C      -15.67279931      -2.31769386      26.65602379       0.34655021       0.83768783      -0.41223206      -0.04474568      -0.32323292      -0.20757186
O      -15.60818371      -2.44596397      27.86224670       1.35553452      -1.06910480      -0.81052005      -0.49109912      -0.45332590       0.93292749
O      -14.77771020      -1.65017897      25.94960911      -1.28198441       0.36222024      -0.82865329       0.96208555       0.88649035      -1.22824287
H       14.77368253     -13.25273525      10.28692252      -0.05393719       0.00712114      -0.00664017      -0.10844377      -0.00366449       0.04222405
H      -16.88317830      -3.85385765      25.77096536       0.03393922      -0.18524087      -0.28972063       0.14719519      -1.43940139       0.29913908
H      -16.47078838      -2.52027395      24.75815747      -0.07341507      -0.26285989      -0.02026698       0.28443587       0.37253124      -1.60316324
H      -17.73424876      -2.38009394      25.97205315       0.09355215       0.00191778       0.19031654       0.88179702      -0.24892136      -0.07209687
C       -7.57632119       6.21340813       1.64127136       0.90980615       0.92940030       0.25496867      -2.84222460       4.11717939      -0.10978734
C       -6.68863682       6.79912819       2.74524185       0.34338705      -0.38326691      -0.43856411      -2.42001104      -1.35926104       1.06197202
O       -7.14141524       6.67641791       3.94256099       0.94949708      -0.75208844       0.10097140       0.64107609      -0.20388517      -0.28005171
O       13.53916480       7.33591909       2.43490413       0.46804602       1.52038352       0.76714719       2.26837492       1.18446934      -1.50084138
H      -15.76255166      12.62905947     -10.10878526      -0.03577448      -0.39194466      -0.22770762      -1.08041036       0.13719974      -0.75056297
H       -7.16847222       5.38811561       1.14316475       0.10683644       0.16131539       0.05346157       0.29033953      -1.71342325      -0.61256647
H       -7.68012364       7.05440221       0.85401015      -0.15651620       0.24843550      -0.03628794       0.43898657      -1.19472289       0.68617964
H       -8.69770795       6.22547441       1.97986293       0.17357405       0.13221784       0.37796313       2.01584482      -1.02757478      -0.40127927
C       16.46720746      -3.38127499       4.11700648      -0.13189584      -0.15725834      -0.28923559       0.67533922      -0.63761258      -1.66950083
C       17.66063839      -3.63911037       4.95898352       1.39024892      -1.41612937       1.01600066       0.03381443      -0.86353910      -0.03333050
O       17.45271345      -3.33907441       6.23392466       0.25042063      -0.33322201      -0.42792677       2.13788748      -0.32397658       1.14530957
O       18.66701139      14.87571790       4.63739163      -0.60680859       0.37803727      -0.65003141      -0.01542807       0.70789093      -0.25780475
H        5.32425175      20.46440649      -3.41030030      -0.30359427       0.02244674      -0.08559840       0.17588806       0.27185649       0.42097861
H       16.36458466      -4.30608115       3.53618204       0.21468436      -0.10237322       0.27612242      -0.14014976      -0.06487152      -0.40484005
H       16.47292728      -2.53815939       3.38362775       0.44850456       0.16092995      -0.05846688      -0.05222239      -0.27498698       0.90678328
H       15.67358015      -3.46170115       4.82220436      -0.15899388       0.11714293       0.02596236      -1.48550284       0.62795877       0.08334225
C      -10.18286662      14.96856874      -6.40909474       0.40591368       0.86176651      -1.19339982       1.32736301      -1.16530716      -3.73234916
C       10.34079327      14.29359660      -6.46484452      -1.11201940       0.00052798      -1.13305830      -1.05307305      -0.23950517       0.49034759
O       10.99281251      14.64431082      -5.34681538      -0.89413270       1.65044891       1.50915389       2.22795057      -0.44482005       0.47079635
O       -8.40319321      13.48492418      -7.29597708       0.11750556      -0.56372597      -1.31575710      -0.04746085       0.44495118       0.33832592
H       33.76917946      17.04429916      -4.84022936      -0.09473635       0.02520755      -0.49314223       0.35164523       0.19518280       0.28615105
H      -10.49490555      14.70882484      -7.47267757       0.19859580       0.16164758       0.04869459      -0.01980174       1.19515538       0.81719357
H      -10.04850705      16.03104591      -6.21100754      -0.11458312      -0.14169710      -0.28270784      -0.48483351       0.05615365       0.15337400
H      -10.86134261      14.36380501      -5.86412158       0.19795688       0.04382681       0.44134570      -0.62347275      -0.14563665       1.40086174
C       35.03962378      14.68645755      13.31900529      -0.33703565      -0.22013331      -0.05154699       1.35940361       0.26054066      -1.29410768
C       34.49124843      15.91308419      12.45895054       0.30622751      -1.33899138      -1.02374670       0.36088786      -2.39615631       0.24097352
O       33.71137616      16.77269441      12.98905032       0.35855503       0.48143260       1.16959805      -0.19764203       0.36267912      -0.37078133
O       34.80492795      15.86192618      11.22440332       0.70920893      -0.37988784       0.15659374       0.30034113       0.70835263       0.29267502
H       26.24048431     -14.13601303       3.92077153      -0.33099164      -0.17239137      -0.19757472      -0.24456835       0.43979216      -0.02093476
H       35.77975272      15.06854900      14.07994836       0.21267692      -0.23159839      -0.17859827      -0.52243870      -0.40268755      -0.60787177
H       35.55988556      13.92656936      12.59849095      -0.27925931      -0.00373693       0.21503645      -0.88524663       1.50953150       1.45895982
H       34.27083298      14.14783512      13.85277561      -0.10269407      -0.32691358       0.33109185      -0.42632711      -0.04942612       0.20951791
C        1.37171617      -3.63424159      29.99506032       0.71206930      -0.24783077      -0.11196806      -1.59631181       1.22993600      -1.62384880
C       -0.12481262      -3.49951865      29.70369153      -0.44633309      -0.46613193      -1.28362022       0.83851004      -1.05286622       0.30377543
O       -0.60791788      -3.16554106       9.48018313      -1.70513363       0.34589739       0.51983464      -0.31399089       0.61756742      -0.61070991
O       -0.88815125      -3.90378098      11.57093067       0.17493911      -0.11814683      -0.64433550       1.08466756      -0.07782769       0.59858012
H       -2.72161172      10.67273243      31.30949587       0.10651341       0.02112295       0.02958387       0.03717925       0.32401919      -0.13936850
H        1.48642876      -3.17925735      30.95264852       0.08796824      -0.05916973      -0.07195978       0.68631947       0.33736110       1.06384039
H        1.85163848      -3.06254368      29.17275242      -0.00414160      -0.22620217       0.17025577       0.34218121      -0.57985079       0.67638952
H        1.60984217      -4.68251819      30.02916225      -0.43289518      -0.09640111       0.03488479       0.40024552      -0.56813067       0.04233595
C       12.81321638       5.82015755      30.94993526      -0.19055433      -0.70398324      -1.26316115       0.12189186      -3.63213921       1.90344191
C       14.20807926       5.44008304      31.42072223      -0.31135148       0.10338252       0.62240932       1.18592906       1.29997885      -2.18161201
O       14.57449714       5.16662316      32.56865716       0.01819813      -0.61733742      -0.41197639      -0.27755958      -0.10157397      -1.07226968
O       15.11281727       5.53926181      30.35783218       0.82484308      -0.69958736      -0.74604069       0.18248427      -0.69148564       2.12529325
H       -1.80688477      15.47662273      30.48389631       0.07799151      -0.27017129       0.16804701      -1.68937218       0.14423609      -0.07430160
H       12.69452262       6.81568306      30.66134771       0.19457894      -0.11494074       0.12660292      -0.01686336       1.84460211      -0.42154863
H       12.21650751       5.52136288      31.84372407      -0.08468115       0.06372182       0.16644137      -0.40742502       0.52140832      -0.82875991
H       12.59408021       5.14241933      30.09380511       0.06952813       0.11744618       0.34731773      -0.07907522       0.47177041       0.39033455
C      -18.48206645      15.95245124      -3.28259905       0.38999738       0.19976239       1.21961055      -1.73263347      -0.88559449      -2.67718434
C      -17.36176407      16.07389107      -4.31554055       0.40919200      -0.37752436       0.77402052       0.84178865      -1.30381250      -0.02577519
O      -17.04542883      36.43798620      -4.69895737      -1.72175858       0.63614144      -0.99567356      -0.25944030       0.20350510       0.49871165
O      -16.78834357      15.03302571      -4.76823196      -0.43321098      -0.00856498      -1.32760054      -0.35655689       1.13676655       0.57175738
H        1.46354937      21.12729339      12.04389097      -0.03445524       0.29719643      -0.11012419       0.14826092       0.00151610      -0.09407622
H      -19.42347333      35.57826369      -3.72777174      -0.31637152      -0.08383798       0.16223691       0.89441556      -0.72477853       0.32815480
H      -18.42709880      16.40564601      -2.34448581       0.06833177      -0.25900396       0.24753667       1.00301433       1.16111326       1.63044143
H      -18.66858659      14.86902907      -3.12119247       0.07144451       0.13535691       0.13436067      -0.09975709       0.59594411      -0.14516288
C       -7.47254614      12.88760330     -10.32512832      -0.25694643       0.73080532      -0.16556133      -0.40623119      -1.84234929       0.92719603
C       -8.42526424      11.78307013     -10.77489697       0.20371396       0.51542837      -1.14213295       2.13806176       1.87473822      -1.87740207
O       -9.19397079      11.31912279       9.15665761      -0.33560854      -0.10799543       0.77339504      -2.45287704      -1.78969657       1.91166556
O       -8.46914803      11.35605444     -12.07102988      -0.09361017       1.08010533       0.31226420       1.63015687      -0.20652676      -1.27579677
H       -5.01485492      -0.93138519     -36.18578390      -0.32205814       0.04716568       0.18730239       0.43366358       0.22566083       0.39408281
H       -6.44223788      12.64627204     -10.56083382      -0.08114141       0.16974289      -0.45851430       0.34576717       0.10507053      -0.10708520
H       -7.69369486      12.85830642       9.91689163       0.35036416      -0.20072954       0.04540576       0.64527476       0.50788885      -0.40139487
H       -7.77216365      13.85118536     -10.68748928       0.01678291      -0.13797411      -0.17566967      -0.16033685       0.78845239      -0.51893926
C        7.75383570       9.53119355      26.11175058       1.07003881       1.13568780      -0.23737327       0.46184093       1.12918377       0.02067333
C        6.91249019      10.48755217      25.23189539       1.74992795       1.44584862       0.80271445       0.02536356      -1.52401233       1.30226731
O        5.74704045      10.69609480      25.84006536       0.02375137      -1.28393541      -0.51022420      -0.33928573       0.03398067      -0.01431739
O        7.18693991      10.89815137      24.10569205      -0.85459797       0.73006476       0.73239432       0.97620493       0.54384160       0.44631219
H        5.13768267      11.26009974      25.20842252       0.14788099      -0.22465293      -0.04517285       0.34174162       0.51455545      -0.08945572
H        8.66800863       9.24866326      25.60952575       0.13654006       0.17517656      -0.15491703       0.35614133       0.04739547      -0.28192794
H        7.21625237       8.62421896      26.35961061      -0.16901260      -0.15430555       0.43523612      -0.42574236      -0.18984616      -0.11897083
H        8.07574627       9.99421552      27.06790709      -0.13054783      -0.24454389       0.06000776      -0.25515804       0.17106947      -0.46797973
C        7.18303203      17.80383317      10.97022469      -0.50887829      -1.39850796      -0.50469390      -1.28994775      -2.30212212      -0.35083103
N        5.82512455      17.83307273      11.63119353      -0.18734416       0.58240985       0.13286354       1.28627348      -0.57363093      -1.44779122
C        4.67984419      18.19598125      10.97423033       0.75513936       0.95254105       0.28184117       1.93444920       0.46995541      -3.96349645
C        3.69804637      18.27351039      11.85069706       0.09200523       0.36422210       0.25593752      -3.31322908       1.62393355       0.93267596
N        4.18229230      17.87209549      13.09998644      -0.03362612       0.43433246       1.34016149      -1.03428996      -0.50194037      -0.34238762
C        5.44261815      17.53189244      12.86047013      -1.20393525       0.90789941       0.47325756       1.08015025       0.32561618       2.63576937
H        8.02330808      17.91772651      11.61790629       0.00981192       0.20078055       0.00752044       0.35171121       0.55011493       0.99739885
H        7.15522099      18.55266982      10.20293172       0.12611440      -0.19238726      -0.05579209       0.21729581       0.40818805      -0.51214445
H        7.34911875      16.77079643      10.48414042      -0.41127835      -0.02887374      -0.03082268      -0.54183722       1.39940655       0.50041252
H        4.74642517      18.26677078       9.86148753       0.22035741       0.28753874       0.32668216      -0.41648957       0.25633225       1.15442729
H        2.67157817      18.78538679      11.64131958       0.10169264      -0.10950111       0.03652730       1.94766617      -1.27541256       0.77084297
H        6.14735999      17.20307512      13.61498319      -0.12866593      -0.03146956      -0.28909114      -0.21188504      -0.10589388      -0.03113811
C      -28.86794683      30.72410775      35.35035041       0.27807526       2.34609212       0.21669087      -1.36702764       1.56628454       1.59053946
N      -29.05314218      29.62918717      36.25715713       1.00957435       0.03979644       0.63613807      -0.08202499      -1.58143246       1.31004179
C      -28.32581967      28.46447742      36.49244474       0.02187549      -1.84857898       0.11400227       0.62081921       0.05111357       0.40605408
C      -28.76946384      27.90170393      37.69021453      -0.26275399       0.51616037      -0.35558977      -1.74067736       2.39953160      -1.00142610
N      -29.83147764      28.73779419      38.18205115       1.15382066      -0.52217429       0.73731838       0.74291188      -1.64542603      -0.00706330
C      -30.00343431      29.66878649      37.28473990       1.65904588      -0.38744489      -0.19115901       0.71465617       1.10406756      -0.24639146
H      -29.22086371      12.44445097      35.94196032      -0.09183126      -0.02554463      -0.09105280       0.17941651      -0.00304623      -0.38631457
H      -29.59154261      11.47022958      34.59369502       0.21731205       0.35725680       0.29657810      -0.87983888      -0.00887738      -1.69478643
H      -27.92642464      31.03646362      34.96985757       0.00986727       0.06963130       0.00393185       1.36625266      -0.66431254      -0.19398054
H      -27.52403890      28.15815673      35.82139186      -0.18296221      -0.15812411       0.07775211      -0.36054146       0.19817540       0.13418859
H      -28.70298354      26.90087519      38.04566346       0.05549201      -0.21027675       0.09744771       0.43238395      -0.64441884       0.34105110
H      -30.70183813      30.52124430      37.39931233       0.06728325      -0.09265667       0.19157282       0.68473184      -0.50017607      -0.43561536
C       17.47048827      19.08822216      10.62148306      -0.79311636       0.15636134      -0.12670331       1.67549849       2.30653191       0.25058633
N       16.75286476      19.70787022      11.74186028      -0.20352861       0.60882100       1.48218939      -1.33005667       0.77137226      -1.70937800
C       15.96821303      20.88179367      11.69791126      -0.59013980      -0.27639116      -1.66355717       1.45391703      -0.91651458       4.04820061
C       15.91428727      21.29235242      13.08366740      -0.44236312       0.78053436      -1.35487059       1.07148755      -0.58581722      -1.77343392
N       16.63588288      20.36379822      13.85447607       0.72113746       1.60826090      -0.19577597      -1.03798413      -0.53955704      -0.36723185
C       16.98637437      19.36342011      13.01695603       0.57644288       0.05743421       0.24371836       1.01179934       0.73324424       0.57691449
H       16.95706950      18.28431360      10.19880352      -0.06894699       0.15906924      -0.19952947      -1.12750411      -1.23181200      -0.98739034
H       18.36392586      18.69963625      11.07224273       0.24121260      -0.15491239      -0.02707772       0.69738042      -0.66190857       0.38446626
H       17.93802390      19.82297920       9.87536703      -0.09721936      -0.13882427       0.06652297      -1.40946317      -0.55454278       0.86385775
H       15.59413865      21.22066582      10.79345039      -0.39856567       0.18807350       0.16347834      -0.67275310       0.77719724      -1.49626100
H       15.59088902      22.26068884      13.53910900       0.16666849      -0.13378134      -0.02204144       0.29307237      -1.00758553      -0.76166034
H       17.45747868      18.36895444      13.19308116       0.23824215      -0.20199752      -0.32286096      -0.38984013       1.09918475       0.48714346
C       30.12960237      17.76448453      34.92119727       0.43837236       1.04785708       0.07758411      -0.13318041       0.58434916       0.19600353
N       29.21126095      16.94692990      35.68808305      -0.59232264       0.96589496       1.01619827       1.72022176      -1.37011492       1.14039230
C       27.88493512      16.69467224      35.53634602       0.03006744       0.43871089      -0.88136570      -1.50790274       0.72862971      -1.84711957
C       27.57788981      15.68022751      36.40231473      -0.46641456       0.35050111      -1.52057465      -1.85570753      -2.40034747      -0.09825012
N       28.67828098      15.28309511      37.09912107       0.03783695      -0.80447047      -1.00654815       1.31362081       0.21427402       0.09025705
C       29.67451362      16.04784898      36.61319200       0.55651681       0.47095200       1.17691532       0.91553223      -0.39767042       1.71319318
H       29.92904477      18.80575025      35.27432413      -0.08458030      -0.14542474      -0.02303242       0.65443683      -0.45744941      -0.80886322
H       29.89395681      17.58018708      33.87920482       0.11705030       0.13329487      -0.14426536      -0.06483306       0.56478018      -0.44911075
H       31.18141780      17.42721740      35.06892073       0.11949019       0.20667346       0.10804005      -0.69951254       0.37326595       0.24664333
H       27.32520532      17.08298768      34.65055087       0.15462797      -0.33756034       0.20991203       0.41758901      -0.20379013       1.01622450
H       26.76854946      14.87218036      36.36308555      -0.50657730      -0.04045949       0.10680363       0.69596630       1.74714947      -0.09473817
H       30.70630899      16.01142071      37.08383238       0.09229282      -0.22246753      -0.04461113      -1.40911794       0.35530210      -0.93045580
C        7.17072744      30.17385763      10.83608365       0.96274039      -0.56229281      -0.05030345       0.79116619       2.24771738      -0.59028369
N        6.24340684      31.17851518      10.23759361       0.43017054      -0.33928723       0.88571918       1.24893165       1.15498245       1.89564013
C        6.00166663      32.42513305      10.97560098       0.19618956      -0.80308348      -0.18977680      -3.39611721      -2.10298753      -2.74804521
C        4.69340485      32.67395551      10.55465510       0.61856057       0.60989857       0.88713280       0.41060501       1.39596677      -0.00662100
N        4.27828518      31.80867431       9.54674476       1.28295302       0.93494626      -1.34045431       1.34583855       1.11862373       2.11186242
C        5.25724206      30.95617215       9.37121394       0.09817383      -0.36189984       0.61335829       0.35526603      -1.64272058      -0.46651295
H        7.13830076      29.22966965      10.32549470      -0.11474617      -0.01583728       0.53884821      -0.04194591      -0.18950152      -0.16315717
H        6.95946958      30.12149925      11.89368473       0.00208927      -0.32279346       0.03669992      -0.33625171      -0.33479115       0.39741790
H        8.12779225      30.72794517      10.75351080      -0.35176399      -0.01542140      -0.15286638       0.09429230      -1.02982545       0.00058838
H        6.57200896      33.06807263      11.62610582      -0.22467903      -0.18704973       0.09802608       0.55418003      -0.56997389       0.03474218
H        4.10019621      33.54275752      10.77883266      -0.32207532       0.02802732      -0.17858636      -0.26206410       0.11573499       0.20734267
H        5.19267636      30.17250274       8.62955976      -0.04923079       0.00231971       0.27045292       0.45563918       0.02379847       0.27457413
C       -0.88241667     -14.58782937      -9.52218628       0.47787379      -1.19309790       1.33179413       0.63269287       1.78778076       0.12074766