640
Lattice="19.152215 0.0 0.0 0.0 19.152215 0.0 0.0 0.0 19.152215" Properties=species:S:1:pos:R:3:momenta:R:3:forces:R:3 energy=-80125.015625 stress="-0.013279573060572147 -0.0019191587343811989 -0.002947936300188303 -0.0019191587343811989 -0.01663537137210369 -0.0007973620668053627 -0.002947936300188303 -0.0007973620668053627 -0.017680976539850235" pbc="T T T"
C       22.39693738       4.42047486      13.37641320      -0.50991477      -0.07471090       0.11194109       0.32003334       1.12269926      -0.39084160
C       22.15608000       4.43830370      11.91603877       1.11402841      -0.21396774       1.50253523       2.68696451      -0.06695123      -1.77942276
O       23.00391152       3.90193334      11.10396329       0.66028697      -0.43520367       0.46283762      -2.34401584       0.89187229       1.41000319
O       21.14524972       5.22976056      11.63153317       1.60724202       0.47060997      -0.25285132      -0.82559913      -0.66819203      -0.96329039
H      -12.90040879      33.44007801       2.30497983      -0.08234330       0.19747253      -0.50964780       0.12458748      -0.26197642       0.53514218
H       22.83439988       3.49295534      13.61239411      -0.00889276      -0.04835487       0.07965331       0.82604927      -1.18470001       0.80159324
H       21.46037036       4.60733123      13.84722511      -0.01286811       0.11155424       0.38607940      -0.76867664      -0.08314919       0.82866567
H       23.04947222       5.28564841      13.61277914      -0.20874268      -0.29872631       0.38795170       0.00395928      -0.53194422       0.12728572
C       10.60765533      -4.38969927      11.05109817       0.76128152      -2.23534358       1.65233228      -0.36492550      -0.33723009      -0.79904562
C       11.36294046      -4.10784592       9.76383580      -0.66556100       0.89994013       0.42778420       0.43957531      -1.73038685       0.74318719
O       11.39966406      -5.04239743       8.92089004       0.82788960      -0.24247182      -0.22978793       0.25126368       1.15867710       0.21165425
O       11.94574194      -2.92902811       9.69758574      -0.22531105      -0.22972042      -1.51063499       0.46351936      -0.26498985      -0.93945098
H       16.87916379       8.31889251      -8.70801002      -0.00248298      -0.20640442      -0.19543920       0.38501602      -0.15207590      -0.35048941
H        9.62396846      -4.66371442      10.59957346       0.21209837       0.02649145       0.04748556      -0.02221711       0.49223214       0.94204122
H       10.62636442      -3.51353585      11.70781520      -0.05704040       0.04337570      -0.19813910      -0.39166975      -0.19738674       0.06018437
H       10.94010010      -5.32723237      11.55404321      -0.29097370       0.22305434       0.16010670       0.23196825       0.60078102      -0.26774248
C       23.27667995      10.54475222     -12.98090354       0.85251894       0.56900282      -0.11871210      -0.18590400      -0.78621435      -0.19781303
C       22.98964247      12.04935131     -13.10152073      -0.69471663      -0.82575416      -0.23112481       1.42691994      -0.59583676      -0.12903872
O       22.66385857      12.76550397     -12.18022220       0.67960568      -0.19807894       1.79994443      -0.75202835       0.17485738       1.20707870
O       23.25472413      12.56693372     -14.30055564      -0.60854453       0.35415302      -1.10562376      -0.41631609       0.64614409      -1.66552973
H        1.58334670       5.06952362     -27.68574211       0.20279887       0.35812293      -0.38191423       0.33257729       0.73386067      -0.16723797
H       23.48922635      10.28432886     -11.90432844       0.14659266       0.21351271      -0.12672941      -1.03012013       0.10230516      -0.80244541
H       24.20207115      10.09849128     -13.45174051       0.33257745       0.05125295       0.44219459      -0.67117763       1.11269796      -0.35048243
H       22.38602384      10.03804205     -13.52040729       0.16571762       0.22080497      -0.02602768       1.08216119       0.33881038       1.21545565
C      -13.12002371      21.59479180     -12.57213594       0.36826904      -0.39054372      -0.12566286       1.55500042      -0.60642612      -1.32774115
C      -14.00343199      20.89894375     -11.66478250      -0.40042017      -0.20278289       0.72157455      -2.76167631      -0.16389418       1.94808209
O      -13.51727859      19.65085059     -11.11883926       0.21892598      -0.46172370      -0.93344503      -1.37164044       1.90507412      -1.55707693
O      -15.12995515      21.36531908     -11.35225707       0.39967956       0.89410984      -1.58440893       2.23292017      -1.63849306      -0.31220043
H       11.90348933      20.94180575      -0.99711838       0.10269791       0.06075525       0.16710546      -0.56097841       0.15954030       0.27438396
H      -13.50784022      21.65911758     -13.63158412       0.25798906      -0.49821593       0.25031234       0.15893365       0.12449133       1.21024466
H      -12.23607114       1.78412148     -12.58133019      -0.00237468      -0.03193472       0.02442836       0.30760533       0.37458563      -0.42885390
H      -12.76945639       3.39234802     -12.16743917       0.07717880       0.07538752       0.01431131      -0.15199015      -0.00716816      -0.01760193
C       13.18145521      15.87514915     -24.40791183      -0.26243399      -0.06542260      -0.11342390      -1.61476421      -3.43460083       1.08168948
C       14.00352506      15.28882063     -23.24850484       0.23425306       0.10538392      -0.32734696       1.96188033       1.24811411      -1.73616624
O       14.09989309      13.99611211     -23.12679999      -0.00695800       0.92093746       0.11240701      -1.19306076      -1.76755357      -0.13287300
O       14.78319912      15.99782679     -22.59743973       0.20627707       0.89542353       0.70364858      -0.30127186       0.55063790       0.50366282
H       -1.33050622       4.77239719       1.28570476       0.15580474       0.10066979      -0.17056695       0.54194945       0.15288627       0.25429326
H       12.16601281      15.63255337     -24.03551910       0.01923497       0.01874662       0.20243473      -0.22925350       0.35640070      -0.39251429
H       13.20263839      15.36643375     -25.40345316      -0.02246473       0.21120572      -0.47504379       0.63357019       0.37407458       0.72918361
H       13.27257409      16.89847174     -24.39057836      -0.02163042       0.20349007      -0.05933735       0.45346448       2.55877161      -0.29187414
C        2.43361772      -4.36380360      21.09084605       0.75979811       0.57127663       0.03000092      -0.08141571       0.60719854       0.99028820
C        2.08350252      -4.22040142      22.64216034       0.00809526       1.47346182      -0.33552825      -3.00987983       1.49620938      -0.59140468
O        2.98424911      -4.18411775      23.52013578       0.52824406      -0.63556450       1.41383437       0.74250823      -0.67319959      -0.16257024
O        0.78800284      -3.97468157      22.97974943      -0.91758855       1.49003115      -0.31750342       2.81649852      -0.87628752      -1.09827709
H       16.33145984       7.58044979     -11.66606854      -0.32822859       0.00819222       0.30978865      -0.09491873       1.81084955       0.40392402
H        2.46026507      -3.38823007      20.49136252      -0.01121923      -0.40353178      -0.08826856       0.05425976      -1.02138507       0.95200276
H        1.71534503      -5.02858040      20.63935347      -0.01037283      -0.14012190      -0.10875883      -0.63255125      -0.23211601      -0.12217131
H        3.37361378      -4.89870453      20.96523265       0.10290203       0.18052428      -0.10832267       0.46827984       0.34523755       0.18663658
C       -8.76526818      -0.49896764      21.43492645       0.15770747       1.05248422      -0.61546055      -0.74145675       0.95966351       0.44846576
C       -7.72850481      -0.25091659      22.53896560       0.86209651      -0.20873521       0.52818232      -2.27800775      -1.06601024       1.72111654
O       -7.85247891      -0.51252625      23.77286845      -0.03358337       0.97177873      -0.96918613      -0.11821419       0.22239250      -2.17623639
O       -6.74770966       0.34174809      21.99481140      -0.35843551      -1.05568890      -0.23368133       2.37542009       1.28609490      -0.71814489
H       23.85413235     -18.45829774       2.00522429      -0.12883844       0.29410585      -0.00496306       0.31709391       0.42625153      -0.38648790
H       -8.45381301      -0.23556744      20.38919374       0.11969909      -0.07928041      -0.45660720      -0.03434356      -0.53836572       1.12628782
H       -9.61904775       0.16017605      21.68268542       0.16678985      -0.07192512      -0.21435114       0.19625783       0.05413616      -0.15419254
H       -9.19847752      -1.46608432      21.56718971       0.18637656       0.09968654       0.22253359      -0.03793416      -1.08238721      -0.42902058
C       -7.46231706      11.79422067      -1.44922031      -2.26680667      -0.60482165      -0.96074321       0.32798862      -0.97107804       1.35735774
C       -8.99011676      12.02993684      -1.66220534      -0.19588351       0.11947228       0.67460446       0.99294043       1.64468873       0.00912446
O       -9.51822198      13.10895250      -1.01358813      -1.16647774      -0.00905636      -0.18435833       0.47946167      -0.95601523       0.98366487
O        9.51973325      11.39949017      -2.50826024      -0.06986593       0.10202492       0.12206984      -0.00925255       0.03431499       0.53765309
H      -14.91736608      13.62518086      -9.48716025       0.22250964       0.31791956      -0.10753586      -0.46735853      -0.30461293       0.05993569
H       -7.29525679      10.73338602      -1.20264609      -0.45272244       0.04217058       0.21972132      -0.41186741      -0.37882942      -0.30854085
H       -6.96639125      12.22973765      -0.54231301      -0.09782046      -0.43443131      -0.19033739      -0.75620508       0.47744536      -0.71755844
H       -6.81906896      11.95858717      -2.31994536      -0.38472436      -0.32555294       0.05142891      -0.36213818       0.38888761      -0.25341222
C       14.92636739     -10.31807195      12.93425620       0.50620536      -0.70036630       0.02400687      -1.00366199      -0.02034879       1.61252511
C       16.17673322     -10.22004018      12.18441958       0.93518914       0.14606848       0.22144236      -0.92670023      -1.54302502      -1.23224068
O       16.03929443     -10.85116531      10.97034051      -1.01591875       0.33403459       1.27956844       0.21032143       0.46642429       0.81723285
O       17.18122893       9.45693585      12.61141998      -1.42239579      -0.68338658       0.89815387       1.73673463       0.56445432       0.01169643
H        6.84414077      20.89255416      -4.23672487      -0.10464306      -0.18526343      -0.12425824       0.27482492       0.48854652       0.04242593
H       15.00955913      -9.78454793      13.91360820      -0.12241732       0.08138700      -0.15174812      -0.06712170      -0.62074608      -0.50919414
H       14.57600308     -11.36495309      13.09207687      -0.04689739      -0.37693735      -0.06356461       0.31602529       0.53169304      -0.14158975
H       14.14710359      -9.81168824      12.39631783      -0.13427002      -0.08718426       0.19744798      -0.61715102       0.21569768      -0.60944736
C      -11.84702706      12.04390986      -8.11994182       1.41388278      -0.15096946       1.00489764       1.18035901       0.74437672      -0.04171762
C        6.91942860      10.72391838      -8.73674106       0.27358753       0.62869352      -0.57508226       0.19563431      -1.27568305       1.58577847
O        7.09154708      10.52685760     -10.03207376       0.13659363      -0.46552680      -0.67057339       0.05064484       0.36032590      -0.57681394
O      -12.64002364       9.84005598      -7.93102309       0.82213572      -0.63062254      -0.43462631       0.00175923       0.41933829      -1.22566903
H       21.05900388      13.95183189      -3.00483015       0.09554274       0.11303659       0.32505513      -0.18609688       0.75087166       0.29852164
H      -12.19637498      12.01021280      -7.05346278       0.00244191      -0.25976133      -0.23619211       0.46770436       0.25072435      -0.93313181
H      -12.32904774      12.86196492      -8.65304244       0.12247900       0.19542748       0.00125654      -0.38743037       0.17242797      -0.02389502
H      -10.72971609      12.35867658      -8.20421255       0.02126221       0.17304104      -0.13865269      -1.50498807      -1.00309229       0.17713556
C       21.52372825      16.68595839      14.60566229       0.47990135       0.06252720       0.56025763       0.08663622      -2.13133526       0.42031193
C       20.64373916      16.50018555      15.80057649       0.08649193       1.03061849      -0.58944844      -0.54267114       0.82053626       1.86935401
O       20.15770340      15.33980798      16.11192665      -0.24174393       0.51176366      -0.67107289      -0.40937358      -1.47358739      -0.48915398
O       20.41967347      17.45373550      16.60966296      -0.52150991       0.37845578      -0.49792078       0.27290210       0.62803352      -1.06022763
H       23.90914439     -19.11485517       8.16770683      -0.08968329       0.13221851      -0.10918848       0.47933537      -0.15151641       0.91089988
H       21.84884839      15.67759591      14.21158836       0.21511570      -0.03208834      -0.07333429      -0.36115324       1.03872252       0.18344173
H       22.38106319      17.16181084      15.05412525      -0.43543743       0.14580117      -0.19426604       0.64799064       0.42653388      -0.43584391
H       21.03367386      17.28452575      13.85833967       0.24562922      -0.05549729      -0.20809283      -0.01099689       0.43394604      -0.54239678
C      -16.35795913      -6.30778419      37.24794201      -0.44609912       0.24806112       0.56453726       1.18815041      -1.81744051      -0.20049393
C      -16.49858006      -6.98076954      35.85175638      -1.80389725      -0.60441451       1.21403226       0.08632959       3.18424058       2.62950039
O      -16.89028438      -6.06512841      15.82484453       0.72840126       0.12672663      -1.16620138      -0.09776816      -1.10017192      -2.20582151
O      -16.26749387      -8.12920384      16.42775391      -0.06547887      -0.53314666      -1.25707387       0.35418999      -1.82773638      -0.63187093
H      -12.35115677       9.57765346      27.86094300      -0.00669516       0.24401146      -0.01108431      -0.02785794       0.43756363       0.51343191
H      -16.75401496      -5.32007176      37.24904876       0.15003328      -0.19840809       0.25403491      -0.11379407       1.01446378      -0.04892360
H      -15.29905537      -6.34938287      37.61830352       0.15938142      -0.13002864       0.55515093      -0.71495420       0.26408535      -0.57312137
H      -16.89783732      -6.91057549      37.95744160      -0.24835562      -0.21069616       0.10230353      -0.61246693      -0.41677195       0.49840716
C       26.64936118       2.45045066      21.94544482      -0.35448283       0.84865666      -0.81038912      -1.01038730      -0.76170778      -0.59273744
C       25.28766110       1.69541145      22.04107872      -0.49746557      -0.03525590      -0.04103038      -0.78905678      -0.86921972      -0.30936942
O       24.70478428       1.45579545      23.11593388      -0.94107529       0.40071843      -0.07152778       0.79441816       0.32018751      -0.80530715
O       24.71296380       1.22143382      20.86016907      -1.10851059       0.20926141      -0.49580208       1.01363420       0.64263958       1.39773023
H       -6.46245912      16.24549267      27.85935395      -0.17411443       0.04505146       0.23171335      -0.21482188       0.14394295      -0.38377613
H       26.79645149       3.04948217      22.85887386       0.04341553       0.06891832       0.08848044      -0.31512809       0.55699748      -0.66369778
H       26.80027014       2.88144012      20.92497699       0.01764766       0.39576871      -0.02048172      -0.37380409       0.35363844       0.91974598
H       27.48081927       1.75587423      22.02839909       0.12243234       0.00628932      -0.36124103       0.10821524      -0.77294803       0.00031089
C       -9.05806393      16.26808709      -2.54128694      -0.77145010      -0.42193094      -0.23582047      -0.09639350       2.12183475       3.31031036
C       -9.49564312      17.66656038      -3.06323305      -0.45358398      -0.46292362       0.41993403      -1.94936550      -1.95403719      -0.83843422
O       -9.00588310      37.93121924      -2.57665235      -0.81561433       0.73555486       0.34907118       0.73541838       0.55996382      -0.04683200
O      -10.48554246      17.68564364      -3.83472291       0.79356009      -1.02777689       0.68664975       1.04421055       0.39003250       0.26352000
H        0.14091630      27.59353487       9.97453546      -0.36034917       0.09173359      -0.16237753       0.88189566       0.61039150       0.26561260
H       -9.03229637      34.60232944      -3.23699278       0.26144650       0.19852065       0.04974641      -0.49713898      -0.25349724      -0.44572988
H       -9.76642219      16.13462936      -1.59600759      -0.13712974      -0.11317703      -0.12277729       1.02664471      -0.51340926      -2.03389978
H       -8.09833517      16.38313426      -2.00570346       0.04535797      -0.04671064       0.18733033       0.05612651      -0.18681328      -0.50848007
C      -11.06780733      11.52477664     -14.15669528       0.93751031       0.90368681      -0.18921192       0.78509861       0.60144472      -1.76186013
C      -10.43333009      10.48465772     -15.10789427      -0.48452165      -0.09544378       1.18295748      -2.19084120      -0.21118593       0.00782132
O       -9.21893908      10.62682136       3.67233016      -0.11147411      -0.77826447       0.71032388       1.27304220       0.78165436       0.42841566
O      -11.18715208       9.58461716     -15.52480362      -0.02896643       0.32671058      -0.86515657      -0.34521660      -0.50006545       0.10962659
H       -3.45478906       2.24515628     -42.14276334       0.24566580      -0.21543852       0.07310638       0.30577686       0.70036936      -0.22410238
H      -11.81062550      11.17450981     -13.46839601       0.10057447       0.01335609      -0.12317232      -0.65445948      -0.69411355       0.15994366
H      -11.49232656      12.35537406       4.36814288       0.21495759       0.15027165       0.34670059       0.23305804      -0.55871242       0.50738883
H      -10.25092716      11.91275483     -13.60398158      -0.16884473       0.11590302      -0.02816500       0.85778725       0.96160609       0.80865240
C        2.48261231       7.32005477      25.44368384      -0.87362355      -0.14045610      -0.70170707      -0.63699585      -3.12062311       1.88268077
C        2.21441333       7.86792827      24.12846377      -0.01531203       0.47103831      -0.67423768      -1.93169403       1.64665341      -0.48062658
O        1.11024034       8.68192833      24.17754010      -0.40219906       0.75106938       0.36435597       0.41783273      -0.81308055       2.39913344
O        2.81596708       7.68947105      23.09012291      -0.06149525       1.57971506      -1.43930848       0.36341709      -0.31681314      -0.71961588
H        0.76473365       8.93074765      23.30507591       0.01164104      -0.20519567      -0.11873185       0.36403996       0.48351914      -1.89842606
H        1.89476771       7.83309395      26.27940370      -0.22705124      -0.09855230       0.08727572       0.82847214      -0.78168136      -1.18061423
H        3.53969233       7.21758605      25.63270461       0.30523363       0.36454120      -0.10302121       0.64821291       0.56263661       0.24544099
H        2.22424040       6.15125591      25.40639994       0.03725085       0.23611323      -0.17647812      -0.02778327       2.36865616       0.17045397
C        8.80298635      24.45216759      19.30325982       0.31701671       0.30347786      -0.57040466       2.73894119      -1.12489748       1.72237849
N        9.47937333      23.47401507      18.47133273      -0.80318977      -1.17390313       1.12214765      -0.79563677      -0.71617424      -0.02429801
C        9.26489197      23.13964243      17.14733456      -0.84378345       0.18341210       0.75510131      -0.04576135       2.29724813      -1.97423136
C       10.21317688      22.17348120      16.83965654       0.50025269       0.54242485      -0.43518508      -1.31744337      -0.40857232       0.69068414
N       10.79741599      21.75322677      18.02875847      -0.48347267      -0.58008294      -0.53984855       0.84349453       0.12269339      -1.47970200
C       10.36390550      22.60738119      18.93715136      -0.44173755      -1.06437075      -1.28110827       2.00123167      -1.40304017       4.30182409
H        9.06738722      25.38425844      18.92393164       0.16046182       0.35131190       0.16695370      -0.21305409       1.98905206      -0.68006849
H        9.33516625      24.40101528      20.30747329      -0.31797371       0.06797043      -0.14560639      -0.84498411       0.02387658      -1.01862514
H        7.79595844      24.23173435      19.42666784       0.12253907      -0.16609866       0.18200119      -2.10659933      -0.13149145       0.11270928
H        8.69827872      23.91320657      16.50014062       0.08078359      -0.02576174      -0.13259279       0.78592187      -1.50727034       0.86887789
H       10.43441094      21.70122610      15.91015187       0.11274248       0.10282738       0.10935708       0.17786150      -0.12526661      -0.36654001
H       10.72640986      22.50180294      20.04748757       0.01138020       0.29128123       0.10839150      -0.95666647       0.60101414      -2.21213961
C      -30.63779194      34.61267946      32.47416070      -0.65707710       0.74162076      -0.37301174       2.18985391       1.18798661      -1.36618328
N      -31.59689477      33.57005543      32.63183347       0.99075316       0.28323819       1.10302526      -3.48909616      -0.86247545       0.33407784
C      -31.69446723      32.44088691      33.49689952      -0.62738286       0.03623367      -0.31717910      -0.58659172       1.07430947      -0.55598295
C      -33.06518375      32.05568925      33.46045509       1.10976363      -1.30373220       0.79401748       2.14778280       1.01405478       0.15721774
N      -33.86535462      32.94968777      32.74114211      -0.14300496       0.38468890       0.25727157       2.57292700      -0.16524521      -0.25147796
C      -32.93820676      33.81983562      32.24670275       0.36371499       0.78681162      -0.07675081       0.51383859      -1.57175338       1.67579174
H      -30.81329511      16.11795757      31.59895556      -0.44803951      -0.09482188       0.12025057      -1.32590485       0.12667294       0.48981288
H      -29.69732536      15.12471448      32.00964354       0.22576705       0.09738460       0.03171281       0.33000216      -0.83844221       1.08508039
H      -30.43463322      35.27680593      33.33902569       0.42845437      -0.03772586      -0.30713970      -0.17504297      -0.53685820      -0.14112040
H      -30.88799939      32.30185568      34.24022307       0.12328335       0.44766002      -0.01508918      -0.53738707      -0.35819289      -0.42118323
H      -33.35938944      31.18362566      34.00746026      -0.24500553      -0.04831097      -0.01867164      -0.86058384      -0.37776905       0.12212759
H      -33.19129775      34.80768832      32.00270520      -0.05639853      -0.15045030       0.23781716      -0.53555679       1.29064727      -0.94964385
C       10.05761463      25.75487766       5.94862941       0.49976747      -0.29163124       0.45730574      -0.02061731       0.26804247       0.37396997
N       10.38842266      24.60875435       5.10274545       0.11201287      -0.23904917      -0.35327519      -0.23880446       1.35135293       1.43674314
C       11.35752769      23.70811194       5.46497784       0.42824632       0.09285356       0.49426231       0.84514374       0.21714425       1.24102783
C       11.49213054      22.95279903       4.35843594       0.61885934       0.77493192       0.84600563       1.76211441      -1.91964948      -2.44702387
N       10.65057838      23.32922778       3.34102243       0.61837658      -0.82494360       0.82254747      -0.59368181       0.12574577      -0.30448645
C        9.96445293      24.35856055       3.84192513       0.52993085       0.64169775       0.03609350       3.19373536      -2.18590379       1.55626369
H        9.11589745      26.21588894       5.61997056       0.12066227       0.05777360       0.41870166      -0.09988804      -0.21413712       0.03576896
H       10.84708400      26.56224748       5.79891008      -0.12145985       0.03903945       0.33304938      -0.59346336      -1.05708611       0.79672348
H        9.91382350      25.31559924       6.98581137      -0.07180416      -0.16455488      -0.01175096       0.42305803       1.12636662      -0.84837145
H       11.94528424      23.71371628       6.42171674       0.35343466      -0.17817706       0.05392400      -1.00212085       0.18278740      -1.06112885
H       12.30402593      22.29363644       3.99997685       0.22104124       0.04606188      -0.10900844      -0.53016460       0.15153730       0.89895201
H        9.13827635      24.77866867       3.47921497      -0.10495369      -0.09096731      -0.35646176      -3.25063944       1.92203379      -1.72033763
C       25.48152880      17.39886536      44.07806518      -0.02030304       0.42626341       0.84476336       0.17016031      -0.63569945      -2.32513738
N       25.94881771      16.45571113      42.92868803       0.43991221       0.40211433       0.57446092       0.61054790       2.41493464       2.31172943
C       27.07507691      16.58267856      42.15374500       1.20042810       0.04640343       0.15155281       2.91570330       1.78550220       0.88499850
C       27.00512117      15.62716925      41.22245413      -0.49887680      -0.20708821      -0.43743972       0.88129807      -0.28394598      -2.53527689
N       25.87156453      14.94928593      41.38628415      -1.05578565       0.19324636      -0.20721018      -2.15810966      -1.58624482       0.13608575
C       25.26859375      15.42655979      42.48649285      -0.86105419       1.06288107      -0.16735252      -1.00944006      -0.74690044      -0.48634577
H       24.56033388      17.86793328      43.74066193       0.21040790      -0.25394251       0.28013257      -0.22711512       0.10914066      -0.17189282
H       26.22275310      18.19222269      44.18698070       0.14037480      -0.10983680      -0.26091232       0.18566674      -0.25957823       0.21720970
H       25.25574853      16.78915244      44.93387268      -0.21305119       0.08402550      -0.15298039       0.28383458      -0.17527449       0.48253584
H       28.04676304      17.13511167      42.33045205       0.05046883      -0.11932192       0.00263735      -1.68549252      -0.21174318       0.41016659
H       27.52934349      15.45192519      40.28902145       0.26674826       0.17124935       0.25488500       0.43202272       0.20754206       0.22950780
H       24.38012140      15.10979011      42.97518696       0.40590026       0.00703285      -0.10784415      -0.75231963      -0.41499668       0.01359233
C        7.99519418      36.29719995       8.93513700      -1.16289071      -0.54285147       1.03157267      -0.91761279       4.38837194      -0.55214703
N        7.16872871      35.20310511       8.73468831       0.00572030      -0.66723234       0.30630976       0.15060323      -3.07619405       0.50336814
C        7.62476095      34.11609468       7.94113264      -0.83282328      -0.07780667       0.29918392      -1.04996490       1.12990403       0.41936639
C        6.62599425      33.20292719       8.02344237       0.37504140      -0.25172956       0.14893146      -0.90472287       0.33251181       0.39989704
N        5.63310610      33.63223589       8.89686228      -1.06082988       0.96574508      -0.64174208       0.13877301      -1.38794804       0.18118733
C        6.03090878      34.78160600       9.38495692      -0.84686248      -0.49386767      -0.11093762      -1.09416997       1.62554717       0.18132158
H        7.77488385      37.04618660       8.10474169       0.05445187       0.12880284      -0.13285518       0.50942147      -0.60423928       0.75470501
H        9.03004656      36.08198644       8.87182830      -0.36905415       0.02835062       0.03402144       1.20455527      -0.45973507       0.23371261
H        7.73182421      36.89276464       9.83124381      -0.27792812      -0.19810788      -0.11568596       0.27269515      -0.52110183       0.05492699
H        8.52736180      34.19848768       7.36619974       0.19571280       0.12225183      -0.18902391       0.31035960      -0.09633198      -0.05778411
H        6.37947812      32.37816125       7.43240088       0.28315608       0.06837310       0.00945634       0.11540707      -1.42886579      -0.90996015
H        5.34167184      35.32939565      10.10966634      -0.17323597       0.23177314      -0.52214542       1.33728909      -0.07932246      -0.81104112
C        1.72295908     -15.91555196     -13.04390707       0.02848470       0.25042630       0.35296375      -0.95061910      -1.66664135      -0.76554382