640
Lattice="19.152215 0.0 0.0 0.0 19.152215 0.0 0.0 0.0 19.152215" Properties=species:S:1:pos:R:3:momenta:R:3:forces:R:3 energy=-80126.6875 stress="-0.015265664085745811 0.0017263374757021666 0.0004660864360630512 0.0017263374757021666 -0.016208328306674957 -0.001159223960712552 0.0004660864360630512 -0.001159223960712552 -0.016080781817436218" pbc="T T T"
C       18.74800594       4.10464874      14.54400554      -0.81716354       0.40677272       0.56062367       1.26637077      -1.06753087       0.43080032
C       19.75664020       3.79448175      13.48417437      -0.18392853       1.09583894       0.82274107      -1.10618639      -0.47464848      -0.81545722
O       20.95310061       3.65732774      13.63099491       0.92541492       1.78022963       1.00067606       1.07574821       0.05500951       0.19601810
O       19.14066691       3.55304880      12.25003027       1.01693110      -1.75001351       0.89700472       0.82992852       0.12133855       1.33325624
H      -11.87850563      32.29121495       3.95442453       0.31411815       0.21062080       0.11169741       1.41885328       0.09183174      -3.06451368
H       18.27129679       4.96549359      14.22418619      -0.14687888       0.12498057      -0.29015698      -1.23319268       2.13653207      -0.52407634
H       19.13011966       4.20294424      15.57254625      -0.21581788      -0.00240347      -0.06837555       0.13137333      -0.03914487      -0.45218030
H       17.99133143       3.34752788      14.46976760       0.13155431       0.14260554      -0.23072020      -0.59964490      -0.60244089       0.18378842
C       11.76122564       0.66144331       2.77337229      -1.22681397      -0.42883025      -0.28234977      -0.74548918      -0.53025746      -0.67540264
C       10.78324253       0.73124025       3.89710501       0.91220401       0.04075719      -0.76310339      -1.56298459       1.34097183       1.75691712
O       11.15056948       0.79293210       5.10926357       0.88136385      -1.56859830      -1.02906054      -0.51651859      -0.53525919      -1.59167731
O        9.47433503       0.88051148       3.52319749       0.41857080      -0.01089323       0.49367240       0.69026941      -0.22418867       0.73500025
H       23.13508723      23.76511847     -11.65220046      -0.26173014       0.20252302       0.21303534       0.48539469      -0.24766722       0.99475938
H       11.60516120      -0.16703335       2.08130112      -0.33398730      -0.14093749       0.39897232      -0.50271779      -0.59799576       0.23313896
H       12.74176241       0.51912458       3.16873110      -0.11421484      -0.01520242      -0.04776649       0.98528880       0.36694050       0.23388691
H       11.65164689       1.48759070       2.07090353       0.23044682      -0.29829757       0.21838186       0.23132963       0.59379619       0.32885158
C       17.01230741       9.79638349     -17.32422228      -0.99792397      -0.30402450       0.84372928      -1.80433929       0.28250572       1.81801522
C       15.63372051      10.44173818     -16.96423826      -0.54246978       0.84899605      -0.81904480       2.08643913      -0.06122136      -1.13755405
O       15.24020043      11.34876448     -17.83459749      -0.08901851       0.21867417       0.88284735       0.03067650       0.62589043       0.64182347
O       15.04044071      10.15898277     -15.92849829      -0.00709920      -0.00077417       0.85960273      -0.72055072      -0.21242952       1.22290707
H        8.56362262       3.38130310     -30.51791848       0.30741432      -0.18507864      -0.03108582       0.21779852      -0.44029987       0.17126206
H       16.87680116       8.76398110     -16.99798831       0.15806371       0.23748221      -0.08873538       0.29739860      -0.31593239      -0.17752355
H       17.79270123      10.23339883     -16.66935211      -0.00555781      -0.03374685      -0.19005418      -0.09614377      -0.02614333      -0.68429059
H       17.08664173       9.88829249     -18.38495736       0.29612418       0.06239764      -0.05843898       0.68717551       0.02479911      -0.79555964
C      -12.96579831      20.82829861     -12.29688026       0.36223198       0.75555673      -0.28205122       0.52021426      -1.52644563       0.82298446
C      -11.80322768      21.16231024     -13.19804478      -2.10803845      -0.34970377       1.15045508       0.91870201       2.06566429       0.78366804
O      -10.97400907      22.16294437     -12.99688060      -0.83927214       0.84201535       0.55599929      -1.45905113      -1.78518939       0.44890916
O      -11.76368076      20.42008410     -14.21436049      -1.08976305      -0.83144811      -0.54860706       1.27446294      -1.34326029      -1.72781551
H        8.64612202      20.19827526       4.34075837       0.10256657       0.13852768       0.06073336       0.73466533       0.26713872      -0.70256633
H      -12.71205374      21.13312841     -11.27075491       0.28426661      -0.04005219       0.14107403      -0.33902708       0.34798819      -0.09159240
H      -13.17028473       0.52790113     -12.24174876      -0.07732050      -0.16775066       0.03709320       0.40246409       1.82136238      -0.43681008
H      -13.84840355       2.16960260     -12.69653158      -0.27940942       0.03352850      -0.35488929      -0.42441985       0.10364446       0.28894281
C       15.60281652       8.34917339     -26.44812057       0.47440549       1.14107834       1.37946922      -0.90819710       1.25534844      -1.36318815
C       14.39482883       7.94725182     -25.70248549       0.56695617      -0.07275951      -0.20785302       0.16150355      -1.37858474      -1.73326266
O       13.78129887       6.80530106     -25.99496191       0.13971645       0.09209188       0.56771754       0.44855940      -1.19368982      -0.80349433
O       13.87734276       8.74003727     -24.96886964      -1.45368566       1.31766707      -0.66508219      -1.51782906       2.24085140       2.68287873
H       -0.49518771       4.98754620       4.22138129      -0.03503787       0.22943071      -0.00214890      -0.23638409       1.02914655       0.53029442
H       16.23687328       8.96837558     -25.83856364      -0.19645188       0.33703218       0.32765687       0.21155234       0.57524836       0.36397707
H       15.10383280       9.00768745     -27.27546796      -0.38819822       0.28240550       0.26144957       1.50185931      -1.02299535       0.85894477
H       16.16414115       7.52386337     -26.81261517       0.21257216      -0.27510259      -0.03611727       0.45185617      -0.65403539      -0.82575101
C       -6.38251191      -3.97250898      21.66278423       0.11921534      -0.28444037      -0.39650846       0.51996726      -0.15125328       0.11773605
C       -5.35134507      -4.96774072      21.04602732      -1.21053633       0.69427648       0.33362066       1.01095974       0.54229987      -1.01274323
O       -5.35978840      -6.18928326      21.63829729      -0.00497204      -0.29823276      -0.55649554       0.43149549       1.58111084      -1.19913983
O       -4.56239235      -4.57494151      20.09298652      -1.14577581      -1.39256138      -1.10648228      -1.85151362      -1.26408482       2.31248713
H       18.58976278      -4.48919672      -5.95223838      -0.00295305      -0.05804395      -0.11143953       0.57381994      -0.59805810      -0.26610613
H       -6.92143545      -4.48122026      22.45732819      -0.08356384      -0.14668466       0.18872333      -0.11455390      -0.18740755       0.28953695
H       -7.13082991      -3.59044689      20.96579882      -0.09659369       0.25650135       0.18316220       0.13082117      -0.13901541      -0.48735434
H       -5.92154652      -3.05732130      22.10868757      -0.25882223      -0.10204130       0.18187155       0.18957219      -0.64836735      -0.29718468
C       -2.72796982       3.42372876      29.60122238      -1.01640859       0.38623767      -0.43590081      -0.65085232      -0.14050937      -2.23547173
C       -3.41769185       4.52726466      30.37112410       0.54999173       0.18662764       0.49736678       0.23843968       1.04899323       1.39792657
O       -4.10608689       5.46271695      29.77360874      -1.08525553      -0.47818971       0.11387202      -0.01566392      -0.88529313      -0.47824979
O       -3.21770981       4.55254941      31.62620352      -0.10286601      -0.62735931      -0.59358920      -0.31565663      -0.23795687       0.16288739
H       23.26562650     -20.74863340       1.01353038      -0.07716271      -0.35221229       0.09344870      -0.20313501       0.45185360      -0.51436436
H       -2.02327213       3.84295476      28.82138417      -0.22265204      -0.06108094       0.15732089      -0.79219657      -0.26894924       0.62982285
H       -3.50438931       2.81781333      29.02362395      -0.13231696       0.16010114      -0.24804570       0.88489127       0.58396435       0.72224694
H       -2.12673358       2.79053956      30.25082001       0.07914304      -0.09620358      -0.16340103      -0.06336556      -0.03561471       0.15618603
C      -13.35799631       8.85880136       3.71041450      -0.31177864      -0.96097128       0.23327589      -2.86612988       0.53646231      -3.10955858
C      -13.86231789       7.43076636       3.43217448      -0.04444041       0.66086754       1.51600906       1.53669000       1.08846939       0.24786048
O      -13.03561324       6.48399201       3.28152673      -0.19930859       0.33782166       1.17960650       1.40347433      -0.07204759      -0.25100607
O        4.07164008       7.20710506       3.42203880      -0.33081600      -0.96225930       0.20050363      -2.83592725      -0.46827376       0.14798874
H      -16.07720417      19.97710557      -3.55570200      -0.06203509      -0.09814906       0.09866577      -0.21155167       0.34164733      -0.06587416
H      -13.88946463       9.30280750       4.52603818      -0.09892905      -0.07000545      -0.03025573       0.11861524       0.23626843       0.88837260
H      -13.68027696       9.58299108       2.83349200       0.30439346      -0.06359137      -0.14674745       0.32413280      -1.45805156       1.19848931
H      -12.33173634       8.86595317       3.66893417       0.34174056       0.40344439      -0.15615065       2.58797598       0.15751308       0.65011823
C       22.61964478     -12.93209558       9.66401236       1.01638522       0.84595424       0.88484590       0.09701514      -1.18739414      -0.55232704
C       23.74911992     -14.03421913       9.77866160      -0.49908942      -0.10275125       0.06499992      -1.58160532      -0.97028852      -2.30892801
O       24.56143730     -14.06142222      10.74032080       0.79474311      -0.59417231      -0.44773779      -0.31260359       0.59080470       0.78746372
O       23.72605815       4.22824239       8.81528979       0.75613852       0.48464451      -0.21414422       0.45041049       0.98381072       1.72666240
H        9.65740441      19.31837167      -6.89593684      -0.03569042      -0.39625205       0.30831252      -0.04712594       0.08416431      -0.43550369
H       23.10595826     -12.00180285       9.35433269       0.09044215       0.10918281      -0.13013983      -0.25656685       0.14129730       0.14817105
H       22.10685407     -12.83663083      10.61313580      -0.05984645      -0.08541755       0.22180941       0.12163355       0.44294539       0.64065516
H       21.79013440     -13.22280237       8.93635445       0.13502792       0.16557087       0.24308564       1.44370103       0.22423393       0.36099717
C      -11.06459806      13.14572691      -4.17309353       0.11928904       0.15048514       0.18107135      -0.33677837      -0.15191665       1.95149910
C        7.41228762      12.47867761      -2.96986196      -0.29782709      -0.54062975      -0.49370608      -0.82455027      -1.12288153       1.14076400
O        7.69797933      11.17549229      -2.68571165       0.24159390       0.82611068       0.96648206       0.81893581       0.02046001      -1.02039647
O      -12.56479223      13.02052591      -2.20555275       1.14773322      -1.00445174      -0.45526937       0.93522114       0.29687405      -1.18517637
H       14.79654320      11.03012584      -0.23848428       0.02392561      -0.16313908       0.14018083       0.15906411      -0.48258328       0.31735677
H      -11.59130655      12.88554147      -5.08518361      -0.13336109      -0.27209518       0.14074607      -0.30036175       0.13622999      -0.15821099
H      -10.02347522      12.87444603      -4.27942004      -0.10516657       0.01962869      -0.07234634       0.53445107      -0.20535100       0.10913140
H      -11.15276226      14.19116381      -3.86959811      -0.15005876       0.06525032      -0.17054248       0.06584689       0.35051268      -0.71770173
C       17.96469143       7.47172690      14.93010411      -0.81291517       0.21767149      -0.45043066       0.50895780      -0.49112177      -1.74128079
C       19.10608701       8.26754990      14.34109132       0.11077158       0.59386125       0.35797576       1.19602430       0.59582156      -0.18144429
O       19.44453995       9.39124677      15.13077950      -0.15185077       0.46087687      -0.41638415      -2.86244392      -2.78878713      -0.13201833
O       19.75306624       7.94835350      13.32539318       0.10975788      -0.74349797      -0.23056914      -0.95064616       0.51233101       1.11129415
H       23.68652263     -21.94127071       4.20243080       0.00326744      -0.17652918      -0.04396153       0.15410742       0.05659392       0.09872818
H       18.40782735       6.59828246      15.44267605      -0.56968444      -0.50547903      -0.04665984      -0.37966529       0.04197416      -0.40199494
H       17.21597800       7.21400484      14.11333142       0.10308517       0.27431954       0.07148396       0.94719833      -0.01378190       1.03130603
H       17.52965427       8.05803489      15.67880183       0.22662951       0.28343826       0.10530007      -1.10096240       1.08856523       1.37915993
C      -24.33573594     -10.34444673      35.71328219      -0.09031709       0.38020628      -0.38494967      -1.39071035       1.65466523       0.90638065
C      -23.43923805      -9.53669559      36.63465607       0.18063545      -0.01050336      -0.16965058       0.64795423       0.31550002       2.23909259
O      -24.10441853      -8.59599855      18.26590691       0.68280642      -0.43934185       0.20086383      -0.65533292      -0.62348020      -2.02518559
O      -22.25398343      -9.78124509      17.74508176      -0.80724444      -0.38151549       1.09749638      -0.45027375      -0.01375180      -1.16750145
H      -10.83015816      10.66342162      34.89994429       0.22162191      -0.02528868       0.46376064      -0.76488250       0.33578762       0.56541574
H      -23.81821149     -11.21583653      35.36388403      -0.19487973      -0.04634944      -0.41618478       0.32109433      -0.52033579      -0.31678906
H      -24.70972484      -9.70542287      34.85916656       0.20514267      -0.32998867       0.02334328       0.48926669      -0.70589375       0.60197145
H      -25.22276168     -10.62076130      36.36659374       0.08428688      -0.03500208       0.15749011       0.74684572       0.09277029      -0.88250422
C       25.48349549      -2.84573174      18.17628943       0.59835716       0.06951387      -0.79066991      -1.61437821      -1.08323884      -1.50220096
C       24.13618730      -2.77572757      18.87549963       0.29384380      -0.24818895       0.88619279       0.53862321      -1.25613189      -1.29408324
O       23.22402353      -3.60797121      18.80960527      -0.57436906       0.35566691      -0.41683727       0.39251614      -0.00675926       0.19824600
O       24.08396328      -1.64511571      19.50432653       1.25140908       0.03422126      -0.38583158      -0.22041535       1.68740869       1.77930200
H       -3.48223962      24.51549066      19.81184840      -0.28625373       0.25227465      -0.03316710       0.35533690       0.20320493       0.02207123
H       25.30389161      -2.51427394      17.14462135       0.04283575      -0.34409890      -0.07713808       0.08603913       0.44116467      -0.07851966
H       25.82355539      -3.84868516      18.01844209      -0.11953684      -0.22952388      -0.10349055       0.07991187      -0.99917197       0.27759814
H       26.21570064      -2.24135088      18.61681819      -0.14145470      -0.10604054      -0.19217411       0.95917737       1.10717595       0.72842491
C       -9.40193186      22.13160363      -4.17115810      -0.31378602       0.06952164       0.19626915       1.94985437      -0.42784190      -2.36904979
C       -9.69840662      23.53463140      -4.67794436       0.40041724      -0.12251046      -1.15878934       0.73585165      -0.78706241      -0.89506751
O      -10.86978882      43.17048425      -4.34356086       0.20484406      -0.14687533       0.54011828      -1.33553088      -0.10499591       1.33302677
O       -8.96797641      24.16720558      -5.44478162      -1.35405905       1.04336307       1.04179070       0.47276187       0.21924376      -0.09860060
H        1.08240652      28.90564715      14.77044714       0.11116745      -0.21406003      -0.16407220       2.00048375       1.54663825      -1.26281416
H       -9.39897546      40.49132417      -5.01714918       0.09958335       0.29916928      -0.24227651      -0.11734100       1.27021492       1.11849546
H      -10.21131148      21.97399806      -3.55366628       0.05784320       0.13407078      -0.01850351      -1.59807158      -1.28095162       1.92070985
H       -8.41667124      22.01810392      -3.66640649       0.02738376       0.17900222      -0.37540743      -0.51912069       0.25519836      -0.09013030
C      -10.69983758      16.86126405     -11.51018608      -1.04635404       0.20009294      -0.21946049      -0.45466465      -0.69461453      -1.31125891
C      -11.88584906      16.72628320     -10.60538127      -0.50818314      -1.12795463      -0.57033837      -0.50087893       2.56003332       3.03064919
O      -11.92229377      17.22000086       9.73322534      -0.08748879       2.04525419      -0.83047642       0.14969653      -1.27293396      -2.66294861
O      -12.96759466      16.23825984     -11.20543152      -0.79501284      -0.88863722       0.64584753      -0.57998550      -0.22998276       0.43534982
H       -4.78238418     -12.97896019     -45.94315728       0.08171134       0.27590051      -0.21033744      -0.10633773       0.30456489       0.57432520
H       -9.78830224      17.21298509     -10.98751098      -0.14630169       0.47325561      -0.08069819      -0.40059322      -0.76928651      -0.14452274
H      -10.92607870      17.65931843       6.87026180      -0.12097603       0.15733126       0.19156225       0.05337793      -0.79266661       0.54774016
H      -10.69612918      15.83874727     -12.04456090      -0.11896617      -0.07357962       0.12097052       0.83760917       1.52676260       0.53729945
C        0.72577374       7.97165421      22.62144445       0.22350934       0.12783509      -0.16675917      -2.12591195       1.96773076      -3.44998789
C        1.39153371       9.34671515      22.66144730      -0.28461340       0.53183662      -0.15039151       1.60825419      -0.70069212      -0.69236803
O        2.73230532       9.23083691      22.91760429       0.33770408       1.31728815      -0.27118950      -1.69114244       2.83952999       0.45746315
O        0.91049957      10.44613222      22.30051529       0.41906046       0.12883974       0.08994969       0.28399131      -1.37910628       0.99355716
H        3.22457708       8.34898460      22.94866002       0.42605798      -0.25792002       0.13442140       0.08611512      -1.17659235      -0.55987084
H        0.99596968       7.60676350      21.55609558      -0.18826824       0.18260142       0.26899666      -0.40909889       0.02225193       1.55405664
H       -0.41101648       8.09661263      22.58481315      -0.37000148      -0.06768854       0.10211675       1.44506407      -0.18602613       0.32984206
H        1.03870088       7.26687619      23.33016899       0.21278647       0.07999511       0.00402251       0.51286918      -0.85917771       1.17958188
C        6.37924712      20.02859680      21.03707604       1.88707715      -0.84369067      -0.75576528      -0.55521178       1.33828259       0.78680360
N        5.56321447      21.32585606      21.10198170       0.54545286      -0.04506989      -0.32268823       2.59162498      -2.39575505       0.47434813
C        4.50072896      21.65564313      20.31125938      -0.61982391       1.58549054      -0.02054985      -0.33696577       2.27107835       1.70757806
C        4.29873945      23.02918328      20.55691849       0.18905417      -0.62579427      -0.25107712       2.14110684      -1.87136412      -0.56340986
N        5.39377079      23.47611799      21.26998576       0.24226669       0.52401978       0.34523837      -0.51858747      -2.20081496       0.73314965
C        6.11362643      22.38555244      21.72947670      -0.60521875       0.34376911      -0.01864372      -2.01460481       1.33326173      -1.33290172
H        6.15192749      19.55848074      20.11177021      -0.11531996      -0.30613195       0.41551470      -0.50218749      -0.78127939      -0.56084794
H        6.20034013      19.43266803      21.94488660       0.10954093       0.03389817       0.02998393      -0.33205703       0.11781785      -0.41792411
H        7.43297115      20.29340548      21.03680580       0.24968162       0.01378599       0.27068776       0.27555907       0.27136394      -0.08237036
H        3.89284552      20.93672176      19.82802798       0.06992942      -0.08692468       0.15130739      -0.33754492      -0.54034799      -0.49725446
H        3.52158236      23.65360836      20.25269573      -0.02351755      -0.06941504      -0.13137616      -1.12201464       0.98282123      -0.45017195
H        6.77456013      22.35454286      22.58937580      -0.09386082      -0.10483339      -0.03549854       0.10547215       0.00375573      -0.23492695
C      -36.37704473      33.33086328      35.71975738      -0.04254411       0.06408548      -0.08678805      -1.43802023       1.23694420      -0.10634452
N      -35.49901211      34.29878601      35.00995881       0.48369862      -0.61263168       0.35323384       2.11841583      -2.01076317       1.77159226
C      -35.77084450      35.57214132      34.72705676      -0.53541854      -1.02171509      -0.32925258      -0.60713923       3.02619505      -3.02588773
C      -34.97545684      35.87198282      33.55377202      -0.34625839       0.09803993      -0.55837349      -1.56380582      -0.33645669       2.13685703
N      -34.09960595      34.87606459      33.39312618      -0.04172656       0.82075974       0.32231131       1.25323069      -1.89001656       0.27790380
C      -34.33730191      33.91584114      34.33693939      -0.52744766       0.48821458      -1.20699944      -0.54495221       0.39423096      -1.30353880
H      -36.28449558      13.20741883      35.15216716       0.05112634      -0.07735232       0.27408738      -0.12954977       0.65574801       1.19413257
H      -37.39141409      14.65588171      35.48559334       0.09132642       0.55805674      -0.14202829       0.92324436      -1.15193224       0.49800143
H      -36.26857732      33.35961517      36.87941651       0.09423102      -0.09787950       0.04027401       0.36209688      -0.37385926      -2.11834168
H      -36.50478901      36.28699012      35.17524900      -0.06960503       0.02645718       0.24463684       0.55962431      -1.15328884       0.02459222
H      -35.09160973      36.58421060      32.74997558       0.27919105       0.15761418      -0.23925603      -0.26846319       0.29784656       0.28143901
H      -33.72527079      32.97577300      34.49530111      -0.10499538      -0.10148598       0.08912189      -1.04087937       1.33608651       0.13487375
C        9.46648546      16.85864821       3.58542820       0.07552807       1.12573010      -0.29012586      -2.46301389       1.48812377      -0.02854469
N        7.98318281      16.64041243       3.28809253      -0.23649111       0.36128911       0.88543604       0.64991635       1.24876118       1.29030228
C        7.49667128      15.66598603       2.51458197      -0.54378769      -0.23139874      -0.21122653       1.03363729      -2.86347437      -1.92906594
C        6.15642330      15.54392973       2.65211474       0.50531945      -0.09679333      -0.43478139       0.45913145       2.99877453       2.48614264
N        5.77724110      16.51330350       3.61725488      -0.90720184      -1.81708142       0.77302542       1.30264664       0.27274567      -0.29993817
C        6.91893665      17.18777813       3.95460201      -0.39633701       0.55394180      -0.17129758      -1.10117769       0.96163052       1.24495792
H       10.00268820      16.17754536       2.94725653      -0.00176184      -0.23637678       0.22184934       0.47094363      -0.21003380      -0.13071400
H        9.54894542      16.66339527       4.66873781       0.10493283       0.01814471       0.14590448       0.52187639       0.13515788      -0.40098155
H        9.59826213      17.94606645       3.28994034      -0.31928461       0.37254262       0.20346606       0.44319466      -1.40688932       0.50384915
H        8.16268682      14.87800882       2.11533356      -0.14309968       0.28440700       0.10449576      -0.30237424       0.70666564       0.09092715
H        5.38755061      15.02237229       2.21646595       0.04568599      -0.24970358       0.07758571      -1.32865596      -1.53496826      -1.24388862
H        6.95893216      18.10878613       4.67481265      -0.10625858      -0.20426093       0.07524269       0.06969970      -1.93857825      -1.54348111
C       19.77465551      14.37443295      46.74427249       1.07373535       0.01276678      -2.06589192       1.10766864      -2.29824352      -3.29585934
N       21.03066156      14.66009376      47.36705709       0.10794350      -1.19055343       0.50449569       0.77884364       0.57339263       2.98131490
C       21.23251523      14.96035297      48.80818113      -0.87996090      -0.53403028      -0.61211714       0.72190028       0.17447364      -3.24117470
C       22.56831524      15.36951025      48.82357784       0.03347393      -0.03343448      -0.93620232      -1.19837093      -0.12776914      -0.22671878
N       23.14124866      15.38019613      47.56406242      -0.70696992      -0.45239581      -0.45462179      -0.51577890      -0.39584428      -0.19804221
C       22.19003348      14.87388385      46.73620921      -1.96135757       0.34391219      -0.75636524       1.35885632      -0.06725448      -0.04371327
H       19.82273931      14.80758184      45.66060779      -0.03367634       0.16349769       0.02801443      -0.17107411      -0.75703162       1.91438377
H       19.05800385      14.92215027      47.28664179      -0.20539097       0.08571952       0.39962926      -1.64057279       0.05877027       0.57424891
H       19.71411688      13.19315173      46.64374025      -0.17036928      -0.26771310      -0.13156724      -0.68140459       2.37623358       0.41453078
H       20.36723012      15.03406465      49.47108499      -0.27468035       0.07835975       0.24741887       0.48389801      -0.25030413      -0.12295656
H       23.12231803      15.63728407      49.69208687       0.08798394      -0.10593792      -0.15329562       0.53721905       0.19617246       0.62702107
H       22.39629527      14.50186894      45.71203497       0.00398099      -0.21931280      -0.02307555      -0.33837587       0.53460044       0.87040520
C        6.43835296      40.59797160      12.83216565      -1.12215612       0.06643499      -0.20258541      -1.26679194      -0.83040822      -0.11098458
N        5.56801540      39.65876686      13.61122912      -0.66624748       0.19167230      -0.15991072      -0.92256957       0.79341960       0.32908016
C        5.79691769      38.42074944      14.13314787       0.29549070      -0.08382148       1.19380055       1.74837971       0.45111531      -0.17464319
C        4.96462194      38.26857739      15.18897660       0.35499978       0.72997540       1.02954760       1.19589067      -3.71624994       0.34141564
N        3.99873012      39.17958057      15.04036620      -0.59905487       0.02384925      -0.34517018      -1.76465678       0.02161258       2.29904437
C        4.36886602      40.04207840      14.14510853       0.25583714       0.69330116      -0.27159291       1.24422288       1.51103818      -2.32062197
H        5.65991669      41.16909152      12.27633423      -0.06422678      -0.28510725      -0.19209632       1.14441323       0.18954465      -0.09015932
H        7.10853191      39.99950606      12.21330012       0.21832678       0.31311854       0.55283805      -0.17424646      -0.07876305      -0.35711378
H        7.09051159      41.19480504      13.46981976       0.05897749       0.09691482      -0.19206960      -0.35636684       0.22283055       0.36835963
H        6.35084972      37.72779976      13.55011316       0.25754324       0.16459647      -0.13458974       0.59596521      -0.63597041      -0.04025346
H        5.07157759      37.38991469      15.87782951       0.14504730      -0.05507345       0.42592719      -0.74762046       1.33879161      -0.36118257
H        3.87443172      40.87178645      13.70087579       0.34949343       0.21257463      -0.05031863      -0.75626695       0.61315584       0.34523857
C       11.62816343     -14.83920173      -8.16729865      -0.54659442      -0.12159559       2.27610179       1.07732189      -1.07026529      -0.77108347
N       10.30523813     -15.17783777      -8.74965439       0.74805343       0.22153144       0.18864149       0.88386112       0.44203734      -1.40955722