640
Lattice="19.152215 0.0 0.0 0.0 19.152215 0.0 0.0 0.0 19.152215" Properties=species:S:1:pos:R:3:momenta:R:3:forces:R:3 energy=-80125.7890625 stress="-0.02048901841044426 0.0009736427455209196 -0.00014951455523259938 0.0009736427455209196 -0.014742657542228699 -0.0019005249487236142 -0.00014951455523259938 -0.0019005249487236142 -0.02346660941839218" pbc="T T T"
C       18.54590478       9.73423969      13.59117329       0.91929323       0.31900428       0.04272121      -0.51667106      -3.47818923      -0.79826391
C       17.54933696       8.72771913      12.96570122      -0.08985615       0.35193816      -0.38375931      -1.91782117      -2.02379608       0.00248420
O       16.35756716       8.52090134      13.28582780       0.15649449      -0.97401218      -0.34069802       2.26748061       1.56732023      -0.27524060
O       18.07567382       7.72642254      12.10934004       0.60359054      -0.86622010      -0.98492701       0.10722673       1.25606000       0.95301038
H       -7.68762442      30.63031010      -2.68634268       0.01046272      -0.34040612      -0.01131921       0.59810466       0.12249925      -0.37090987
H       18.79606599       9.20444961      14.49679191      -0.15278889       0.05821880       0.16110920       0.23013885       0.18517715       1.02422643
H       18.13557053      10.65524712      13.76220137      -0.25200129       0.06944447      -0.32462872      -1.67021954       2.41505694       0.61243635
H       19.45445264       9.84179305      13.05605177      -0.06615119      -0.15634658       0.25181413       0.88959551      -0.13718791      -1.02235067
C        7.23153180      -1.21337767       6.45418387       0.34988244      -0.78324548       0.39539675      -2.30951595       2.50505686      -0.19302022
C        8.54363188      -0.87011301       5.81366440      -1.24030798       0.89454832       0.77826081       0.84079278       1.36114991      -0.01074794
O        9.30907930      -1.78458980       5.20641297      -0.09792915       0.83301907       0.55804362      -1.25884283      -1.70460117      -0.59765911
O        8.97313901       0.29116903       5.79341114       0.12173649       0.69854841       0.98640924      -0.68188590      -0.26897734       0.60286152
H       19.77299188      13.88990286     -10.83388312       0.02429399       0.20343440      -0.05911632      -0.12488104       0.40873396       0.14955628
H        6.86593056      -2.20840061       6.45838251      -0.08478830       0.01361268      -0.04433020       0.35804480      -1.52642035      -0.36266541
H        6.38267004      -0.60877385       5.87350439      -0.17257285      -0.08338055      -0.17815954       1.67215896      -0.91089773       1.07156801
H        7.10426467      -0.87412529       7.50570760      -0.34825616       0.11934229       0.14720141       0.63003039       0.25878873      -0.54115504
C       15.55516641      17.24445619     -14.92776418       0.95248028       0.25719044       0.69979857      -0.91218436       0.52652073       0.93606454
C       15.65486864      15.85650914     -15.38536001       0.05128692      -0.56782489      -0.22510835      -2.29509830      -4.05246496       0.66124624
O       14.91359041      14.93934104     -14.89844753       1.76278130       0.07390232       0.71213719       0.70169580       1.81292534      -0.32457295
O       16.46380163      15.44289231     -16.35583423      -0.34113429      -0.46777243       0.00389375       0.14569113       0.06348300       0.34138003
H       -0.12999914       7.64192571     -25.97239649       0.06722261       0.27003498      -0.27842235       0.42926887       0.02217456      -0.37712279
H       16.39204959      17.87703974     -15.25806974       0.08854005      -0.15418627      -0.11200421      -0.27811059      -0.10604355       0.41224575
H       15.33652980      17.15170252     -13.82363625       0.17488034      -0.20665206       0.01773168       0.70193231       0.55481851      -0.70717043
H       14.59916323      17.63076342     -15.33495928       0.08143786      -0.09034522      -0.29941482       0.24623291       0.11949649      -0.06653350
C      -16.39590338      25.29658347     -12.13653312      -0.12568299       1.01638307      -0.62748085      -0.80608076       0.79830170       2.47948503
C      -16.62765278      23.87553254     -11.46966883      -0.02035316      -0.57064327       0.71654018      -2.92799020       3.94027162       2.11678362
O      -17.54196606      23.78990306     -10.58108604      -0.05464043      -0.04267015      -0.51379578       1.06615996       0.10983372      -1.06782770
O      -15.94371670      22.89090977     -11.80559886       0.83052176      -0.00504053       0.08487774       2.74463415      -2.51495552      -0.99703348
H        6.59371261      18.24289707      -2.62152023       0.04717545       0.04316601       0.20426693       0.49268997      -0.14660493       0.45610398
H      -17.37068961      25.58185474     -12.56862462      -0.04469801       0.05176378       0.13804246       0.31033897       0.02583276      -0.27338809
H      -15.58486417       6.16774805     -12.82080231      -0.15235111       0.15897458       0.28080206       0.75231814      -0.19442183      -1.11439288
H      -16.16906648       7.02713986     -11.37171291       0.03027345      -0.18167434       0.14906342      -0.52726400      -2.10560155      -1.09128702
C       15.37160931      13.66988928     -27.43490317      -0.13847170      -0.80886547       0.39233189       0.86002010       0.94805521       0.28999591
C       15.64934195      13.38951396     -25.98272874      -0.39100048       0.04285990      -0.58374055      -0.74837911       0.48590052       0.01245463
O       15.28950193      14.40356028     -25.15487728      -0.49583352       0.53283394      -0.56094854       0.77745080      -1.22824538       0.30381441
O       16.10642476      12.31688589     -25.60758033      -0.14416794       1.26921479       0.12973314       0.40896183       0.26510876       0.29856884
H        1.05490497       8.46918876       3.21369962      -0.13805621      -0.04035074       0.04285751      -0.14641935      -0.96527386       0.09479553
H       15.75478865      12.82746866     -27.94177378       0.04509763      -0.14946780      -0.10247121      -0.16094720      -1.31273925      -1.04238749
H       16.01981698      14.47923334     -27.79423526       0.28790464      -0.28941854       0.09277667      -0.04459013       0.44712991       0.13566370
H       14.34393088      13.96489212     -27.62748384       0.38047321      -0.53588348      -0.09828117      -0.27629244      -0.23922715      -0.11984712
C        0.33791653      -5.94343537      15.23605649       1.21449045       0.54407801       1.17413452      -0.87976700      -0.90688926       0.35709918
C       -0.71368773      -5.46960436      16.25312335       0.07115590      -0.39021263      -0.05876591       0.20531791      -0.53561640      -1.13758254
O       -0.56320463      -4.25674912      16.75728118       0.33110429      -0.45091599       0.14154502      -0.92738909       0.21734056       0.74031746
O       -1.58870996      -6.24566707      16.62780611      -0.68790421       0.53936772       0.30953304      -0.03791064       0.33328015       0.16237187
H       11.54424200       4.11540773      -6.61683264       0.20115717       0.02475242      -0.21714407       1.59687304       0.48175728      -0.02759546
H        0.01484748      -6.42129378      14.25547763      -0.17537188       0.12767788       0.21239541      -0.21272588       0.99702704       1.08656716
H        0.72549700      -6.79072580      15.81055280       0.08873438      -0.01811515       0.04912501       0.67110193      -0.17213473      -0.26530746
H        1.09445572      -5.18933609      15.12557385      -0.03635498       0.22344684      -0.03796178       0.46326745       0.31609178      -0.30641362
C      -13.96150276      -2.75022375      23.49024663       0.73859400       1.52693359      -0.88285133       0.53000182       1.62527311       0.23497117
C      -14.03759462      -3.56762681      22.20766634      -0.65006880      -0.43813179       0.73875317       3.57210970      -0.90092814       1.88943481
O      -14.96692554      -3.70629843      21.45767963      -0.06139116      -0.63751022       0.32108292      -1.40425611       0.01055872      -0.69226402
O      -12.82395521      -4.21248577      21.95865710       0.06561431      -0.44372064       0.31984688      -1.23399949      -0.12261069      -0.56800985
H       20.93499152     -18.39090181       3.30061705       0.43695702      -0.36885569       0.31119710       0.15560752       0.04144678       0.23301867
H      -12.93615271      -2.60774863      23.94426038      -0.15658582       0.15648145       0.23789321      -0.87066996      -0.49484479      -1.20454884
H      -14.52985189      -3.08586622      24.34536722      -0.02850795      -0.08212944      -0.27483262      -0.87689924      -0.65345871       0.02281687
H      -14.32284912      -1.72920950      23.26255496      -0.20252189       0.10215318      -0.42683704      -0.11214098      -0.09355407       0.05761778
C       -4.66684332      12.61920314      -3.69675916       1.15470644       0.70172655       0.35447093      -0.93854499      -1.31106508      -1.86219919
C       -5.72362782      12.05872389      -2.80410571       0.04575709      -0.05206312      -0.18333332      -0.07614338       0.16212225      -0.58196676
O       -5.45720978      11.75651597      -1.64457494       0.41496985       0.36905312      -1.03282668      -0.25433296      -0.56645530       1.33130395
O       12.19974734      11.99949069      -3.34392251       0.09584485       0.27287157      -0.55097942       0.58978665      -0.08982065       0.40924430
H      -16.19523472      11.60739083     -16.41408997      -0.09698698      -0.28025765       0.05992212      -0.40955335      -0.18976441      -0.15522504
H       -4.93773608      13.61072340      -3.90971941       0.10190766       0.02319200       0.15723765      -0.29349959       1.74589980      -0.44144607
H       -4.59395872      12.12501134      -4.69466629      -0.05319259      -0.14930168      -0.04157194      -0.68484378      -0.00414610       0.56636560
H       -3.65169341      12.59679677      -3.41815786       0.27963442       0.14586145       0.25141439       1.10305345      -0.16078769       1.48232770
C       16.82407366     -11.93436172       8.16986473      -0.22298046      -0.72341824       1.28311246       0.50845987      -0.62105477       0.50681669
C       16.04046942     -11.77421095       9.43941911       0.86173776      -0.64174750      -0.25323963      -0.73614341       0.66506314       0.18600863
O       15.65560874     -10.53264150       9.82830021       0.60352163       0.16583801      -0.00335562       0.20021981       0.25635999      -1.00068951
O       15.67932787       6.39618523      10.07565752       0.38715745      -1.41898242       0.86337892       0.46464729      -0.30471158       0.63038146
H        5.40754186      22.47693371      -0.82844358       0.16010469      -0.06436333      -0.19592161      -1.23670125       0.41013494       0.41294652
H       16.58734777     -11.18793674       7.44427152       0.08576184       0.16739740      -0.17264718      -0.45172232       0.45267522      -0.86333752
H       16.68128001     -12.98021292       7.85454571      -0.34811828      -0.04233363      -0.06447226      -0.03698060       0.41890317      -0.40393871
H       17.89902271     -11.80581884       8.33672992      -0.14883632      -0.38005556      -0.11774720       0.19723168      -0.02314983       0.27110469
C      -11.21116837      12.43953756      -9.54298496      -0.81452035      -0.40170224       0.49559754       0.61183858      -0.28724205      -2.20561886
C        7.49046473      10.99666205      -9.25858176      -0.26960378      -0.42013368       0.04128898       1.88846421       1.44898772      -0.14151753
O        7.85839786      10.39115288      -8.11778410       0.16051152       0.85944076      -0.19140801      -0.63575822      -0.84127212       0.00921580
O      -12.18121380      10.34344802     -10.14548705      -0.27041457       0.33892273       0.32453369      -0.79284108      -0.87637836      -0.67324388
H       29.14271488      15.14646941      -4.72074271      -0.16682743      -0.22288352      -0.02444541       0.63460398       0.26713368       0.37209818
H      -10.67126437      12.92971185      -8.74746248      -0.04953559       0.09614217      -0.09783334       0.10996169       0.15785614       0.38032815
H      -12.02081965      13.03936278      -9.97137917       0.30574602       0.15497324       0.11956163      -0.74348474       0.04254023       0.73088759
H      -10.60966805      12.53994173     -10.55536797      -0.09318220      -0.12404835       0.14084635      -0.31912473      -0.80126941       1.88417673
C       30.07735622      13.58291631      12.38548554       0.32901211       1.46143409      -0.07894991      -0.78658450       0.16492152       1.66592145
C       29.00794433      12.82619156      13.29240492      -0.24690148       0.53551581       0.29095713      -1.25888157      -0.69597888      -1.48634934
O       28.26009279      11.97122491      12.54782945      -0.50442258      -0.08747345      -0.67512482       0.80177957       1.14048624       1.90577650
O       28.81433736      12.99222692      14.52757714      -0.21942970       1.75538770      -1.00684005       0.25444204       0.50143903      -1.49398971
H       23.44799944     -15.20309133       6.83084197       0.44993757      -0.31267076      -0.00939013       0.04799396      -0.35565445      -0.83775556
H       30.06521917      13.15338036      11.40082262      -0.17496439      -0.36775227       0.44834833       0.05337799      -0.36602452      -0.54459822
H       31.01877700      13.37082943      12.87274116      -0.05660837      -0.26718193       0.07114106       0.70103216      -0.06952521      -0.01225019
H       30.01563085      14.69179877      12.32458654      -0.13917256      -0.03225736       0.10607950      -0.40543386      -0.57302421       0.22900096
C       -8.36218661      -3.94129172      35.95530575       0.40199247       0.24241298      -0.76339368      -0.21944541      -0.70075798      -0.85176861
C       -8.24166477      -2.85474577      34.91656481      -0.20237510      -1.44258773      -1.55705068       1.98919106       1.43586373      -0.41253453
O       -8.61245117      -3.16988926      14.46629929      -0.06249310      -0.08550674      -0.75042870      -0.71587867       0.02861321       1.08119583
O       -7.62210534      -1.75233373      15.93516831      -0.26793327      -0.16676421      -1.49309371      -1.79750204      -2.64714742      -0.23603615
H      -10.79977504      10.90786805      30.89503924      -0.11746277       0.04505584       0.06193029       0.08536351       1.08180380      -0.46763280
H       -9.37745037      -4.26241351      36.20349121      -0.13659377       0.08224579      -0.15079019      -0.35555699       0.14617765      -0.46423042
H       -7.92720441      -3.69771669      36.88323341      -0.04250586       0.41461187      -0.06888757       0.48096204       0.94562429       1.11436617
H       -7.80734097      -4.85434634      35.65810582      -0.16206320       0.19669712       0.36503779      -0.36732501       0.14668591      -0.36888778
C       23.32485522       0.14372413      20.36192747       0.77962112       0.56671399       0.24241118       0.50631863       0.61278063       0.61937928
C       22.76492396       0.52557011      21.71420261       0.13454365      -0.82540428       0.05619332      -2.17321992      -1.39739156      -3.33865452
O       23.38435046       0.97753205      22.60511023      -0.92747081       0.00092249       1.69062862       1.72613442       1.34638667       3.20654106
O       21.39839055       0.26616743      21.71202477      -0.39756161       1.26411219      -0.93629694       0.51446038       0.39896166       0.46363926
H       -4.38029126      15.08147177      31.77956682       0.00776131      -0.20121083      -0.02317762      -0.29197040       1.07095075      -0.01224375
H       24.14155434       0.80953642      19.99290221       0.04549882       0.01938174      -0.53200747      -0.55604774      -0.22526859       0.49028367
H       22.46140318       0.18096847      19.73564523      -0.22839421      -0.01057382       0.18130712      -0.39752829      -0.33867946      -1.04668128
H       23.73277938      -0.85835787      20.47499281       0.08022210      -0.03678801      -0.30240729      -0.01404356      -0.40122485      -0.21747933
C      -14.66199800      16.40281040      -0.71390607       0.47217477       0.04200490      -0.00844069       1.96436524       0.83264291      -3.14202404
C      -13.27531892      17.01332593      -1.20572248      -0.81259125       1.56160198       0.06365876      -0.55433917      -1.55549324       1.22597039
O      -13.41696385      37.00502695      -2.22510687       1.44803865       0.01793950      -0.09638653      -0.07507318       0.15515849      -0.22352943
O      -12.19428054      16.65164463      -0.67979888      -0.80201115      -0.12321886      -0.28546393      -0.76634824       0.71602213      -0.84442103
H       -2.41332194      18.96000388      14.54916684      -0.08291990      -0.16530358       0.19926750       0.20754614       0.08097500      -0.00524545
H      -15.30490475      36.35109173      -0.43486485      -0.06966378       0.10129359       0.01941331      -0.78880656       0.95682794       0.29422379
H      -14.47412888      15.77663465       0.11996814      -0.03056107       0.05599430      -0.06029949      -0.02307460      -1.00977874       0.57750994
H      -15.09692678      15.95278331      -1.65882127       0.21495839       0.19422306      -0.10714096       0.36480951      -0.08201280       1.32235348
C       -8.16735546       6.16755307     -15.02161086       0.53679134      -0.02732627       0.20191091       0.81200302      -0.74556118      -0.27711850
C       -9.16595149       6.05033126     -16.21454020      -0.22923874      -2.13334650      -0.40739354       1.34366333      -0.21723744       0.75113052
O       -9.61480291       4.90608576       2.74076844       0.06893188      -1.32009329      -1.19708435      -0.48817879       0.39869344      -0.82736504
O       -9.46250519       7.19814133     -16.84332443      -0.02373664       0.58190161      -0.90164541      -0.49271297      -2.02365971       0.29392880
H       -1.81602533       0.07584578     -36.67428493      -0.04347958       0.17789000      -0.04781565      -0.66132128       1.32329965      -0.84658653
H       -8.67721351       6.90134113     -14.43908064       0.15778264       0.01955472      -0.35358511       0.03170842       0.53689492       1.38083613
H       -7.13608202       6.55413533       3.97747679       0.35985151       0.34590422      -0.11839073      -0.72906923       0.18578190      -0.73913395
H       -7.95007537       5.21051741     -14.46412228       0.05014648       0.35364887      -0.10829249      -0.99360299       0.77524245      -0.65233397
C        6.39768346       5.87810948      20.84685039      -0.28227739      -0.69423578      -0.16852725      -2.42848682      -0.13501740      -1.30314517
C        6.04688338       7.04189676      21.72275426       0.09924486      -1.47825412      -0.27706271       2.88777614       0.89139855       1.36644888
O        7.11946827       7.87774578      21.98510610       0.34209240      -0.70231968       0.09157576       0.34332514      -0.21113491      -0.83189356
O        5.07992710       7.33869086      22.38818509      -0.17579452      -0.30751699      -0.16161596      -2.01112199      -1.04144585      -0.36666465
H        7.99472886       7.56006448      21.59050298      -0.05144730      -0.40450323       0.11495305      -0.32468170       0.38264215       0.22209001
H        6.73329500       6.29714492      19.90400714       0.07255353       0.05947737       0.15416709       0.63730168       0.25466338      -0.34373891
H        5.43796823       5.38183388      20.43891134      -0.17818109       0.30933736       0.00747743       1.24259043       0.13457789       1.18266833
H        7.19604210       5.22994751      21.23347467       0.08711975      -0.20613847      -0.31212770      -0.44715539      -0.00916335       0.01692846
C       11.02439454      20.92252090      14.89688601      -0.24697705      -0.10580971       0.16480617       1.03394294       0.33048165       1.27578795
N        9.71925276      20.43336205      15.23552124       0.78208987       0.30601031       0.61613671      -2.64203739       0.35630041      -1.53966427
C        8.57077751      20.90566965      14.50687857       0.93739337       0.45698040      -0.16528475      -0.38079643      -1.31134748       2.55512595
C        7.48724774      20.14385639      14.94021546      -0.02917548       0.19471415      -1.81548224       2.50823331      -1.39307141       0.43055212
N        7.99104912      19.14360444      15.93378936       0.69672453       0.30334483       0.21308894      -2.20896864       1.75873661      -2.13360071
C        9.28332365      19.36282503      15.99714982       0.42543550      -0.09486272      -0.20649295      -0.81515527       2.18166304      -1.38060248
H       11.69750779      20.09956056      14.80013985       0.22349897      -0.14889291       0.18988220       0.68283737      -0.88463926       0.06835873
H       11.43582586      21.60117054      15.66595057       0.11065322       0.11779988       0.10409462      -0.13573539      -0.14239822      -0.06029429
H       11.07381166      21.44796941      13.96352112      -0.02379180      -0.21247670       0.09426565      -0.52801692       0.37491664      -0.65967143
H        8.53002962      21.88251031      14.07268047      -0.08231139       0.24190856       0.41299955       0.37967592       0.32165658      -0.40727499
H        6.60495388      19.98147315      14.32965818      -0.04647572       0.22916862      -0.02886291      -0.36226690      -0.01972700       0.58133084
H        9.94205277      18.72204230      16.43369062      -0.14117349      -0.08498834       0.21600258       1.86680746      -1.46359968       1.46568871
C      -26.33922959      28.51937566      32.92830688       0.02425721       0.73300873      -0.09230886       0.45479262       0.04801066       0.48079002
N      -26.09882720      28.91984723      31.56252914       0.53593751      -0.26011623       0.15994498      -0.18925788      -0.61733514      -0.79642206
C      -24.88518163      29.34368990      31.16108578      -0.02556883       0.81891496      -0.15852960       1.25856662       0.92961895      -0.91714799
C      -25.05693931      30.03766212      29.97942681       1.15060896      -0.78751293      -1.51230286      -0.72912157      -0.44253141       1.31904674
N      -26.40066242      30.05135176      29.65713835       0.80158260      -0.09881606       0.05174706       0.52827734       0.04021230      -1.05017185
C      -26.95228794      29.30445382      30.57066195       1.31050534       0.77381116      -0.52101812      -3.70917797      -1.30335367       1.71810806
H      -27.40965666       9.32279937      33.19736001       0.06678504       0.01345283       0.12875514       0.44502333      -0.12261184      -0.15162750
H      -25.82347169      10.15500282      33.48731029      -0.26542590      -0.28841261       0.18006183      -0.41642201      -0.08043946       0.54963624
H      -25.76193969      27.59971947      33.13812725      -0.20135343      -0.29155541      -0.09706198      -0.61088234       0.04134226      -0.01652192
H      -24.03091418      29.29057744      31.78357750       0.07596423      -0.17465922       0.06834134       0.82159317      -0.30596337       0.48180574
H      -24.34499027      30.65738515      29.52305352      -0.01206720       0.14004980       0.14972969       0.77509087       0.52800584      -0.85464036
H      -28.03947307      28.95980797      30.69953331       0.26647037      -0.04042653      -0.06993870       1.84875846       0.86211473      -0.72009343
C       14.15439602      19.96777702      11.11333175      -0.22024166       0.79959382       1.06519606      -0.03907949       0.73722148       0.51223052
N       13.78239929      18.68953504      11.74766159      -0.12795534      -1.22589325      -0.71080506       2.67245150       0.30794215      -1.69376934
C       12.99157563      18.51631344      12.81348762       0.18044244      -0.51655382       0.18202942      -2.12183309      -0.86384475       0.92578316
C       13.16573057      17.16915068      13.23398312       0.84603856       1.35690191      -0.39801488       1.29050219       0.45127183      -3.21329498
N       13.99690666      16.51053234      12.24440987      -0.46489593       0.32958561       0.05837105      -0.54991847       2.16452837       0.72880328
C       14.35625812      17.50998098      11.37886517      -0.45964488      -0.88130521       0.33005242      -0.91661203      -1.45295405       0.06050141
H       13.37832324      20.16485880      10.38632655      -0.26107660       0.16269437       0.40023865      -0.48236525       0.66498303      -0.12053819
H       15.04956062      19.87747339      10.49190678      -0.04814246       0.02932752      -0.13214840       0.22266906      -0.44431427       0.30374792
H       14.32333942      20.81289003      11.85767287      -0.14569144       0.27364473       0.24550470      -0.50627720      -1.02583575      -0.78352129
H       12.06211382      19.14534311      12.71511330      -0.11075289      -0.04250750       0.29233321       0.86945218      -0.70025802       1.00603426
H       12.72485269      16.54908346      13.96915494      -0.16696422       0.03744745       0.37398963      -0.41803145      -0.15634954       0.72730720
H       14.70027363      17.32559652      10.33928926       0.09368517       0.00515913      -0.03543462       0.06373507       0.31626207       0.99786639
C       24.01649424      12.21243199      37.91169785      -0.88722695       0.39675509       0.03749999      -1.33582091       0.41448039       1.84524405
N       25.37090749      11.97862474      38.42344592      -0.62393098       0.30128551      -1.04461283      -0.81998432      -0.55554289       0.27341604
C       25.74572927      11.35936850      39.66136860       0.38655503      -0.52049442       0.68758675      -1.56419587       0.91286850      -1.88507223
C       27.01694125      11.71857963      39.87136785       0.28177502       0.59483716       0.79601561       0.70516551       0.39580885      -0.98718882
N       27.42906064      12.46326822      38.78237197      -0.10549582      -0.44085093       0.55688214       1.72264504       1.24547052      -0.19902676
C       26.39056616      12.65628695      37.90757256       0.52391075       0.05667496       0.45761932       2.31015587      -0.20178342       1.51863313
H       23.44333111      11.29598800      37.65334461      -0.20658212      -0.27519483       0.38784546       0.58124876       0.31133389       0.37757507
H       24.12377097      12.81402007      37.02977294       0.20278213      -0.25799869       0.00946654       0.06255689       0.53705645      -0.75712013
H       23.46373714      12.85904177      38.70512604      -0.03286633       0.19885616       0.20265292       0.63680255      -1.12320662      -1.31898010
H       24.98289737      10.88836103      40.23084576       0.20665358      -0.17453956       0.06389871      -0.34011286      -0.44117963       0.41297665
H       27.67082275      11.55524969      40.68284688      -0.02743136       0.17049210       0.49091790       0.63379145      -0.30622262       0.82941061
H       26.44396498      13.35460932      37.07324750      -0.17602684       0.39986759      -0.04617738      -0.34638625      -0.30488452       0.09213334
C        5.78796098      28.13443735       6.05878184      -0.24385473       0.37120443      -0.65139868       1.96335566      -2.44173145      -0.06040499
N        5.05395595      29.20806378       5.50846040      -0.34120980       0.82898149       0.19576491       0.59368205       2.47547269       0.03108501
C        5.33706256      30.61442828       5.77429047      -1.16130301      -1.00552451      -0.10513134       0.54866457      -2.60121083       2.02091837
C        4.68354922      31.27994414       4.81068466      -0.04808447       0.80215892       0.58199477      -1.14409351       1.36055732      -1.11505175
N        4.00284055      30.40368678       3.97924021      -0.70390906       0.15754619      -0.44520279      -0.46215606      -1.22720885      -0.63247371
C        4.24780739      29.13126975       4.42843572      -0.10770229       0.06350506      -0.27170778      -0.12809837       0.90695375      -0.70465225
H        5.31144218      27.71203026       6.92307686       0.30585376       0.26911839      -0.11150181      -0.53221893      -0.38742286       0.65607071
H        6.80945643      28.37993679       6.40337404       0.34379175      -0.15419038      -0.50011180      -0.33614725       0.68647122      -0.13001412
H        5.99844250      27.29122471       5.32377777      -0.20732079       0.19924013       0.11834469      -0.73474836       1.10712576       0.45068017
H        5.87310648      30.86791714       6.73641341       0.11197404       0.15000974      -0.28353766      -0.65823305      -0.21438348      -1.43589890
H        4.56058690      32.38165783       4.67664566       0.12742499       0.09772596      -0.06749814       0.27368918      -1.11439753       0.10816026
H        4.02927431      28.12425418       3.95223540      -0.03615387       0.35789885      -0.18263340      -0.02242137       1.71860743       0.53815794
C        3.97793656      -8.46739475      -9.38740178       0.00884147      -0.67149772       1.23257306       1.00616682      -1.32917774       1.50410521