640
Lattice="19.152215 0.0 0.0 0.0 19.152215 0.0 0.0 0.0 19.152215" Properties=species:S:1:pos:R:3:momenta:R:3:forces:R:3 energy=-80124.7109375 stress="-0.018150335177779198 0.00011040808021789417 0.0009127922239713371 0.00011040808021789417 -0.0194057896733284 -0.001530964276753366 0.0009127922239713371 -0.001530964276753366 -0.01660715416073799" pbc="T T T"
C       21.12768951      10.65407993      12.25495405      -0.56196353       0.56656965       1.22354001      -2.98995996       0.32470024       1.57215512
C       22.41040896      10.57394891      11.66255132       0.16097829      -0.49619814       1.47932078       1.60466504       1.51663053      -0.08497673
O       23.17764436       9.64667252      11.76162738      -0.94359636      -0.41177373      -1.03089153       1.08115125      -0.97057593      -0.35771748
O       22.79035057      11.78998193      11.17432244      -0.20483398       2.07253339      -0.25666548      -0.04691941       0.59933037      -1.30504203
H       -5.02548711      28.28125570      -0.34123352       0.25950512       0.27324923      -0.07751499       1.23909748      -0.24363181      -0.99171710
H       20.57196046       9.74248137      12.08447161       0.07038058      -0.07174479      -0.17984451      -0.22414649      -0.40634269       0.05112706
H       20.52696217      11.49980275      11.85376094      -0.10108576       0.11571765      -0.06257016       0.14273220      -0.20940693       0.55991006
H       21.27500126      10.73929379      13.37394654      -0.00090267      -0.28412815      -0.04871005      -0.45404109       0.08142596      -0.96189916
C        5.40575177      -3.38088440       9.10731719      -0.64116172       0.15533627      -0.87349997      -1.66006732      -0.26975018      -2.33708096
C        6.23214969      -2.26580663       9.65841657      -0.94816584       1.00387812      -1.37268796      -0.04420155       0.77543861      -1.25927806
O        7.03781361      -1.59839523       8.76513887      -1.18887775       0.31868858       0.30849688      -0.40450472       0.87407684       2.40807748
O        6.13007726      -1.83781434      10.80992931       0.81676656      -0.83422843       0.12320264       0.16785201      -0.07950503      -0.91998994
H       22.12173184      16.50066700      -6.16972513      -0.01312775      -0.00886679      -0.23147329      -0.10997049       0.56003481       0.16937757
H        4.41792074      -3.34776602       9.58013474      -0.22673884       0.19606856      -0.09966588       0.06651080      -0.03729422       0.44569129
H        5.79761804      -4.38864109       9.27627382      -0.10135319      -0.01664747       0.23573490       0.14195144       0.16592573       0.13321327
H        5.10590889      -3.31034191       7.96453879      -0.27625650      -0.02079219      -0.12473208       1.13242507       0.14628954       2.02133703
C       16.50402738      15.61636650     -19.68475971      -0.23952762      -0.86498221      -0.79785889      -1.39814711      -0.56022465      -1.14377093
C       16.85354955      14.52259368     -18.64176081      -0.05136381       0.32596276      -1.06564670       0.20992714       1.66744184      -0.16814545
O       16.38515644      13.40224217     -18.58043110       0.99121908       0.00939181      -0.50876395      -0.27879605      -0.32046795      -0.05863780
O       17.77591869      14.92985794     -17.72668714      -0.01554201       1.22466850      -0.13900654       0.24338409      -0.71636081       0.24386680
H        2.83115055      12.33021410     -27.42107909       0.11320477       0.10972943      -0.22651089       0.99656534      -0.33194491       0.29996088
H       16.89795739      16.63887397     -19.48220164       0.04773398      -0.22900874       0.01965036      -0.29471278      -0.76386762       0.24603352
H       15.32100832      15.66541119     -19.81991026       0.58926822       0.01929309       0.34243946       2.47761726      -0.08304687       0.15640479
H       17.00641964      15.28028085     -20.65456133       0.00670035      -0.07940398       0.25251077      -0.88911796       0.29920498       0.98978668
C      -18.74018904      23.15205129     -12.25738521      -0.49712624       0.68938936      -0.25917146      -1.10092807      -1.03897369       0.44663644
C      -17.94351633      23.33906901     -13.55231636      -0.57448640       0.39295999      -0.54044569       0.01684627      -0.06738186       0.82322979
O      -18.37158015      23.91824127     -14.53718061       0.36316543      -0.93306673      -0.41565469      -0.59028137       0.67401087      -0.27710307
O      -16.74121007      22.76856944     -13.60848961       0.29802555       0.80325333      -1.35786694      -0.57405937       0.32576728      -1.84701431
H        5.29764478      18.02107562      -2.79937043       0.03944091       0.05861505      -0.18895909       0.14983064       0.26013994      -0.20424010
H      -18.10976626      22.79791644     -11.35790610       0.06932222      -0.26442170      -0.13415481      -0.93820578       0.16722468      -1.62283325
H      -19.55118810       3.21547379     -12.63422326      -0.09399999      -0.25409979      -0.41376499       1.50319791       1.23826969       1.27347052
H      -19.32089720       4.90180755     -11.89493483       0.16370400      -0.11439718       0.18734616       0.61810231      -0.61005700      -0.80967170
C       14.10703609      10.92616233     -24.10908282       0.55259765      -1.01533415       0.43142556       1.69321096      -0.55223322      -0.75759733
C       15.21513297      11.72318557     -24.83025514       0.57790633       0.05490709      -0.08775308       0.90801424      -0.09293419      -0.83182794
O       16.29454963      12.11717369     -24.13831287       0.26906195       0.14747183       0.13413912      -1.18565857      -1.52599871       0.03984880
O       15.07696690      11.94953773     -26.04392701      -0.35375542       0.73877743      -0.03740507       0.10932660       0.18523866      -0.27467841
H        2.95616298       8.96468902       3.31472506       0.10669761      -0.18378277       0.49686218      -0.75222194       0.10096064      -0.42493984
H       14.61578405      10.05973483     -23.60974219      -0.09104650      -0.03506244      -0.06447482      -0.73516011       0.56003517      -0.07373036
H       13.25792917      10.64396123     -24.78018653      -0.25087025       0.04788652       0.16667601       0.80538046       0.21415645       0.44021478
H       13.84235163      11.68780215     -23.42345604      -0.04536217       0.09931762       0.27275746      -1.17771697       0.30006030       1.25030541
C       -0.20824721      -7.86146160      18.07074544       1.31672754      -0.23269921       0.62358433       0.50160348       1.81514740       1.14952493
C       -0.89248792      -7.23678685      16.88655685      -0.31242272       0.14333407       0.05476545       1.59113014      -1.54644167       1.49748993
O       -0.88581860      -8.08600580      15.87270291       0.03825801       0.03303315       0.26254816      -0.71194953      -0.71792448      -2.22628784
O       -1.25612593      -6.09538423      16.85992490       0.37521760       0.38359417       1.47726700      -1.04314148       2.08737326      -0.32716793
H       11.43545003       2.02040597      -6.15317490      -0.25917581      -0.22742258      -0.02801850       0.64563620      -0.68137068       0.83988905
H       -0.40972279      -7.13334514      18.93539123      -0.17716766       0.05390268      -0.07376472       1.23647928      -0.72737497      -0.96640050
H        0.85257018      -8.16154750      17.81394735       0.17181167      -0.43725232       0.07835413      -1.00112295       0.55196226       0.70491803
H       -0.72496249      -8.70701474      18.44242749       0.05098562      -0.22816205       0.17928157      -0.72759235      -1.61346447      -0.06737860
C      -14.40616453       1.55980765      22.94611046       1.02244136      -0.85693476       0.50007114       0.70548028      -0.99064928       2.48790669
C      -14.79713920       0.25697459      23.61009245       0.26084772       0.76569528      -0.97794975      -4.12027645       1.84085059      -0.59382927
O      -16.03578393      -0.09501755      23.50935227      -0.41509672       0.95073468      -0.42345149       3.17797565      -0.49927291       0.39297187
O      -13.87625009      -0.24825011      24.39348285       1.27951382       0.35564198      -0.31769994       0.23919415      -1.26380062       0.10128677
H       16.36586921     -18.14427581       6.18132830       0.20308555      -0.31814642      -0.15747043      -0.03834835      -0.13336378      -0.27404362
H      -15.18059622       1.80218305      22.32537401       0.00335884       0.33564272       0.44460757      -2.44425607       1.09302568      -1.44752133
H      -13.61884358       1.41070904      22.27863461       0.13400986      -0.10260204       0.04832002       2.07599926      -0.02325632      -0.88737416
H      -14.21918866       2.33305046      23.71248954       0.03560961      -0.20833771       0.00659737       0.05989439      -0.22071305      -0.44901687
C       -3.17236794       9.50804960       1.26442286       1.50816446      -0.64459476       1.21553103       0.65798140       0.65771544       2.24939704
C       -3.11224181       8.65886056       0.12527870      -0.20262264      -1.06880432       0.63033123       1.49602962      -3.31200624      -4.25448513
O       -2.13347535       7.96701205      -0.32067776      -0.67077282       0.59870888       0.09415288      -1.02839792       1.81823897       1.88228488
O       14.94317008       8.51530522      -0.62992168      -0.98472787       1.25172536       0.75617773      -2.04791141       0.77593797       0.48873597
H      -17.75415355      12.96535019     -11.47190877       0.35610379      -0.06750250      -0.07432607      -0.23371893      -0.20539783      -0.36333197
H       -2.57610035       8.88469215       1.99617225      -0.23442024       0.32087840       0.23306070      -0.51784468       1.12156129      -0.07020283
H       -4.24015114       9.66081476       1.61294890       0.36056214      -0.03216829      -0.13311652       1.38642514       0.23121463      -0.30404866
H       -2.59113853      10.44913802       1.02173742       0.02496153      -0.11613088       0.10067825      -0.79354918      -0.61285704       0.60247153
C       18.53270225     -10.27429635       7.88067282       0.17938494       0.44148797      -0.28191345      -0.29751062      -3.54328537       0.51663387
C       17.14500481     -10.95414162       8.12648892      -0.02218976      -0.23274767       0.37280170       2.20915365       0.18349466      -0.12905845
O       16.22585067     -10.81853562       7.17688863      -0.55940586      -0.12207509      -0.34251771      -0.39022511       0.45171034       0.10461065
O       17.03955024       7.49466923       9.13674088       0.47934560       0.70813557       0.10711157      -0.73742884       0.05415606      -0.10900640
H        5.96216963      21.00473593      -1.50766973       0.09235758      -0.32859772       0.24124804       0.25711483      -0.13494062       0.59629726
H       18.64739472      -9.83702646       6.92500860       0.16908139      -0.31080994      -0.19618536       0.20929055       0.05716997      -1.48864436
H       19.29232803     -11.14084750       8.12067265      -0.07063469       0.17523410      -0.07358022      -1.10094535       2.14327073      -0.48517397
H       18.62507447      -9.46152528       8.53286748       0.17615799       0.08227084      -0.28427365       0.47106498       1.04811418       1.54397070
C      -11.54660075      12.96417010      -9.89439414      -0.32394023      -0.41656434      -0.64738895       0.78948879       0.27915326       3.17956972
C        8.75462998      12.53906012     -10.68582817      -0.72278699       0.25163604      -1.07555032       2.96144867      -1.26210141      -1.25615811
O        8.39702850      12.04932591     -11.88769934      -0.98600590       0.89336944      -1.56670384      -0.51051545       0.10784710      -0.50903755
O       -9.18226346      12.48554442     -10.39129968      -1.00400372      -0.15433331      -0.20243182      -1.03271949       0.73878598       0.66056710
H       30.87134697      13.64052811      -4.19029178       0.12611484       0.12432056       0.04018135      -0.26650125      -0.16831189      -0.10041529
H      -12.34043726      13.01793428     -10.55823832       0.01685371      -0.31130316       0.06879543      -2.05696726       0.16845010      -1.08320713
H      -11.42271148      13.90521564      -9.27725943      -0.42657183      -0.13971962      -0.29859718       0.14488547      -0.97095191      -0.77861571
H      -11.74669798      12.16763216      -9.11938103       0.01314965      -0.21234325       0.11247052      -0.01519603       0.60735440      -0.72471285
C       30.73820343      12.12314837      11.59331430       0.10540005       0.32284308       0.39050054       1.54763746      -0.87917870       0.36823529
C       30.24564498      12.55250526      12.94157235      -1.38575225      -1.48440465       0.98230641      -0.61958307       0.05916375      -0.29586935
O       30.94967409      13.36791129      13.65009535       0.97256011       0.79188033       0.73088148       0.16479957       0.30206186      -0.29658747
O       29.14846259      12.03973631      13.28248353       0.28206866      -0.16470091       0.86752010      -1.26494920      -0.07883537       0.87337011
H       22.05640609     -15.62199271       6.38665390       0.19519719       0.07391118       0.06577419       0.77882469      -0.39613277       1.22131538
H       31.83715986      12.13136014      11.72459361       0.26825382       0.09053010      -0.26427800      -0.17533320       0.47712970      -0.91102922
H       30.29468158      12.59503090      10.71116396       0.26974156      -0.04846262      -0.00397796       0.23489186       0.44171435       0.14121489
H       30.55315535      11.04967388      11.44525856      -0.03915360       0.03373900       0.46748494      -0.36251414      -0.00766047       0.21312028
C       -5.27388015      -5.58451104      36.24734530      -0.26852711      -0.96115930      -0.06875623       1.07816851       1.89160728       2.59775233
C       -6.09126361      -4.84882905      35.28984602       0.69420466       1.17341681       0.79383022      -0.89299124       0.94650781       0.37028611
O       -7.29116001      -5.38679699      16.05868991      -0.38408884       0.64972953      -0.45023938      -0.11580914       0.21205711      -1.38510060
O       -5.72916264      -3.80144181      15.53151178      -2.94405382      -0.95415356      -0.03743674      -0.05795717      -0.70424473      -0.06785539
H       -9.96283022       8.53221099      25.05810029       0.02962312       0.06780176       0.51852862      -0.10799554      -0.68916214       0.62732077
H       -5.60364991      -5.44778730      37.36722694       0.04525558      -0.51874224       0.05661525       0.29933983      -0.36784369      -2.00640845
H       -4.28117336      -5.12283002      36.19814647       0.11370152      -0.26205092       0.25239433       0.26075259      -0.52487427       0.20223483
H       -5.24565652      -6.61004707      36.00225584       0.17528793       0.10272102      -0.19719235       0.21039444      -1.22458923       0.06255917
C       18.67246026      -0.20274032      23.36108075      -0.11548956      -1.74804089      -0.79139252      -0.66654456       1.56242573      -0.72277755
C       17.84414671       0.86362438      24.01173753      -0.60509173      -0.63329021       0.65125993       0.87701041       0.00118804       0.47716618
O       18.06171862       2.06816966      23.96677749      -1.73790535      -1.44889165       1.23337960      -0.16391313       0.42241722      -0.05410954
O       16.87313599       0.31860930      24.74949709      -1.47172880      -0.85801973       1.21214966      -0.95327580      -0.17355049       0.66228932
H       -5.40178262      15.46762387      33.01940410       0.02260317       0.14060278       0.08401150      -0.22881664       0.44624972      -0.64448899
H       18.42420602      -0.11876197      22.30856219      -0.03332862      -0.04814840      -0.26268198       0.40488389       0.05394906      -0.58306199
H       18.25506456      -1.12089210      23.62164734      -0.05719368       0.11869725      -0.04010954      -0.41816479      -1.97096121       0.71584427
H       19.72716326      -0.16080305      23.51930568       0.24230955       0.11202185       0.02678828       0.88886482       0.25601199       0.20337903
C      -16.08891453      18.79431231      -0.45428242       1.28889856      -0.12737268      -0.26926154      -0.02937977       1.51866555      -0.91626316
C      -14.85706154      18.23392108      -1.05203901       0.26892990       0.04140067      -0.58181795       1.08356905      -0.46565604      -0.03788537
O      -14.69535666      37.61650531      -2.38464320       1.15071838       0.33375646       1.17609148      -0.43721181      -0.41252595       1.83527482
O      -14.07881752      17.58016451      -0.30821537       0.82381117      -0.04006067       0.40113599      -0.15213253       0.21446534      -1.23142982
H       -2.10668934      13.20824282      13.98633823       0.06162068       0.40738310      -0.26440057      -0.08423632      -0.06246692      -0.23184137
H      -16.18405308      38.97595037      -0.94459848       0.07829748       0.03515943       0.05017523       0.10866311      -0.85888350       1.11187840
H      -16.09906272      18.75790029       0.66076327      -0.20594648       0.14963960       0.12369441      -0.00202452       0.13551632      -0.93813461
H      -16.90839302      18.28155269      -0.94172059       0.01298298      -0.33740271      -0.16510792      -0.64381093      -0.37112492       0.19113502
C       -9.01385953       3.55476717     -15.93654037       0.08553890       1.31977869       0.65533655      -0.08810401      -0.38970774       0.26665497
C      -10.34449981       2.90610753     -15.83250222      -0.45238651       0.50156373      -0.60811647       0.03060716      -1.42411327      -0.56279647
O      -10.80265613       2.13077850       2.48620778       0.17570293      -0.37124203      -2.13031496      -0.12071073       0.12248951      -0.26991171
O      -11.01515680       3.06733022     -14.69091503      -0.37607944      -0.81160129       0.99017745      -0.83400548       0.54526907       1.18865538
H       -3.74996383       0.87054031     -36.42388702       0.38824412       0.21495184      -0.40913712       0.12653565       0.32511434      -0.63984746
H       -8.28801081       2.68072705     -15.72131224      -0.12552097      -0.14216644      -0.23363114      -0.56500053       1.89534307      -0.43742180
H       -8.97994764       4.43562771       3.93571371      -0.03313737       0.12009357       0.14490194       0.64966553      -0.90695190      -1.13530588
H       -9.02014615       3.82202269     -17.00998976       0.08419867       0.21286769      -0.09851411       0.87561584       0.30482188       0.45094556
C        7.30095074      10.18929329      21.94493341       0.74250296       0.35967495      -0.77544812       0.28105193      -0.75298530      -1.98098838
C        6.26008133      11.19391770      21.55907713       0.08728745      -0.97172254      -0.09056325      -0.02748388      -0.00861663      -0.75255573
O        6.03010185      12.21403411      22.37678185       0.58883380       1.05048993       0.12037889       0.13486221      -0.42497316       1.79714632
O        5.80086919      11.20287101      20.42752111       0.14292382       0.62772940       0.24620804      -1.02950752      -0.67354870      -1.30165124
H        5.22945590      12.72743266      22.01474258      -0.12008883      -0.38800085      -0.38327829      -0.07650632       0.58985418      -0.71387416
H        7.99753448      10.82147796      22.40881416      -0.22035525       0.02625116       0.15420699       1.77354264       0.49687850       1.24354005
H        7.77587152       9.83891747      20.93754381       0.08278130       0.00470389       0.00886418      -0.81005907       0.16774744       1.80551147
H        7.02708031       9.34992103      22.60981156      -0.59327961      -0.00603986       0.11100984      -0.09411436       0.43190992      -0.24331893
C        9.71757060      16.77175293      14.23858283       0.60284985       0.85159998       0.50575356       3.66500354      -1.77256787       0.22824486
N        8.35259700      17.00754388      14.31048280       1.48639637      -0.85700798      -0.68653912      -3.00594664       2.08022356      -0.93194026
C        7.52339825      17.46952542      13.23670238       0.13619069      -0.39726571       0.31244938      -1.49114323      -0.51922029       1.43059552
C        6.34210305      17.93585666      13.90799394      -0.55445667       2.36200380       0.84376737       1.52477920      -0.63659376      -2.58867311
N        6.45816401      17.72213179      15.23820392       0.71150281       1.17410686      -0.38972179      -0.68086797       1.27767515       0.74013889
C        7.68897142      17.33093575      15.49010660       0.41326799      -0.93565356      -0.84660739      -0.45375550      -1.51650476      -0.04378963
H       10.02069193      16.94023206      15.29961406       0.28516153       0.37516427       0.18880696       0.70604646      -0.28900135      -0.77909005
H       10.29013580      17.47670590      13.57275092       0.05795481       0.00758830      -0.12433727      -0.69194543      -0.38317534       0.56036699
H       10.03515321      15.68867400      13.91636866      -0.14472741       0.03952427      -0.05872372      -0.71365696       1.78908539       0.65363759
H        7.59992774      17.14069395      12.15743809      -0.06185724       0.08165941      -0.40272915       0.35374910       0.39459774       1.63341439
H        5.49165364      18.38454647      13.36795527      -0.00195849       0.11897120      -0.15527750       0.37979412      -0.32668185       0.79228115
H        7.92771104      17.12249399      16.53869441      -0.15806364      -0.35341195      -0.07738737       0.84075654      -0.09057306      -0.61444539
C      -30.96114235      29.27447833      31.10879623      -1.72136140       1.35813932      -0.21259443      -0.61803341       0.81486189      -1.54006135
N      -29.98759832      28.44766735      30.47053053       0.13832084      -0.56672441      -0.32234024       0.88740331      -2.72818017      -2.12991095
C      -29.91863347      28.21102741      29.08151497      -0.31464584      -0.88426414       0.42713708       0.09434205       1.04395115       0.66599870
C      -28.91944363      27.33949789      28.83539813       0.65319182      -0.77294967      -0.11639812       1.66267920      -0.83888352       0.40231860
N      -28.39044534      26.84169078      30.03566370       0.39723605       1.17370962      -0.85882167      -1.24328578       0.73715347       0.50879639
C      -29.10797975      27.51632414      30.94426516      -0.59327360      -0.47117702      -0.56227337       0.65281922       0.45501369       1.39192176
H      -31.78157765      10.25104237      30.38463910      -0.11436781       0.31067444       0.14593157      -0.10152057      -0.11775968       0.36848634
H      -30.55354690      11.10010627      31.25729015       0.00327697       0.06309485       0.33231221       0.38883415       0.87252641       0.45597595
H      -31.35444043      28.89850911      32.01723217       0.03811244       0.01271960       0.05135708      -0.19893084      -0.79290301       0.90210283
H      -30.47803079      28.77184098      28.39771280      -0.01591582       0.22701062      -0.14589899      -0.83743775       0.77889228      -0.85976928
H      -28.22901167      27.25285829      28.01136713      -0.04700271       0.02978182      -0.06160383      -0.58790350      -0.00741562      -0.67171347
H      -28.94761056      27.51628699      32.00218144      -0.04711983      -0.15744076      -0.04035338       0.25877342      -0.38880605       0.49827099
C       14.73866189      18.67838809      10.75380472      -0.33450085       0.04287361       0.65785124      -0.35357872       0.70974362       0.36530769
N       14.59535362      17.37368659      11.46622033       0.05837712       1.04873298      -1.22275995      -0.09940594      -0.19912603      -1.00882924
C       14.63664691      16.08812683      10.78242469       0.12483524      -0.26112637       0.17140290      -0.30050397       2.67851257       1.39434338
C       14.10747788      15.24157196      11.69795572      -0.27899605       0.36830759      -0.14096316      -0.09595466      -0.55222362       1.56435406
N       13.93147284      15.93579417      12.91398221      -0.09449830      -0.37061055      -0.48403507      -0.80035943      -2.41210938       0.33643842
C       14.13062316      17.20558054      12.73283304       0.26776351      -0.44956116       0.52124457       1.51421189       2.46812892      -0.81621480
H       13.78550592      18.92318966      10.17434078      -0.20159023      -0.22712264      -0.23157483       1.16038346      -0.48918208       0.54665983
H       15.64682142      18.66327177      10.11935007       0.10052252       0.06875900       0.37862563      -0.47729999      -0.13031186       0.05945531
H       14.87898076      19.50412418      11.50273506       0.05029042       0.12068022      -0.23227882      -0.07753101      -0.91478944      -0.43625218
H       14.98740817      16.14016379       9.75058623       0.01947263       0.18715322      -0.19921958      -0.14706199      -0.72023821       0.01934755
H       13.70698170      14.24286797      11.72474155      -0.18610298      -0.15533062      -0.32892350       0.27301827      -0.41219842      -0.45040345
H       14.10870395      18.04244397      13.45539286       0.06126458       0.05805874      -0.03947574      -0.23951733      -0.56357157      -0.36950502
C       25.42399824      13.77596588      37.08345952      -0.45550471       0.26900877      -1.14089420       1.80725515      -1.62030840       3.63848877
N       26.91189986      13.38150586      37.28752191       0.91555620       0.71940357       0.36034187      -1.33442342       0.36752877      -1.32784235
C       27.97693416      13.94496959      36.57086508       0.64026581       0.66743025       0.51388127       0.28778899      -1.82916760       3.96740460
C       29.07634406      13.70071665      37.38292034      -1.27082473      -0.07993830       0.16197066      -0.18793055      -0.09605065      -0.19771644
N       28.71477965      12.97684200      38.52995884       0.23726158      -0.52947120       0.27039769      -0.29519483       0.41874766      -1.08945417
C       27.40413627      12.74675674      38.37908018      -0.21616502      -0.38051562       0.27683182      -2.02268744       0.21205892       2.49713898
H       25.23937584      14.38418536      36.27545431      -0.19636017       0.13762579       0.34646621       0.07731202       1.41170347      -2.27069616
H       25.16083392      14.32024193      38.01299829      -0.18351422      -0.16471761      -0.00417338      -0.15823810      -0.19725785      -0.36630991
H       24.86223397      12.84801314      37.05569013       0.09136531       0.04339791       0.03172612      -0.19448538      -0.20388331      -0.11878028
H       27.78036028      14.41203967      35.68470201       0.02264498       0.16826140       0.21600148      -0.01788087       0.99820429      -2.22659731
H       30.09687982      13.96970478      37.21205045      -0.22227419       0.14150205       0.04217508       0.29887712       0.11621889       0.02901757
H       26.71064269      12.41633995      39.24949924       0.25377784       0.18368801       0.06447658       1.27830446       0.53360009      -1.89480972
C        4.93006094      29.82565176       6.18277894      -0.04848423      -0.69884784       0.86400916       2.98804235       0.05691272      -0.25367305
N        4.11043296      30.81893894       6.65626984       1.11542688       0.37691355       0.50878714      -0.17111611       2.32689166       0.98951244
C        4.45493448      32.20564440       6.50510371      -0.26965891      -0.94933503      -0.41792251      -2.55743265      -1.81785154       0.71687281
C        3.27997247      32.79673674       6.83376014      -0.92178350       0.31895227       0.41015788      -1.45561123       2.71037626      -0.13289744
N        2.29624260      31.88860224       7.18721579      -0.54121790       0.26276852      -0.10879461       1.31625509      -0.20680040       0.30250210
C        2.86998012      30.66136109       7.12992556       0.25857887      -0.23710256       1.14984737      -0.81079942       0.20355272       0.28576979
H        5.63631655      29.41596928       6.88122663      -0.23253916      -0.12913905      -0.16903358       0.89013016       0.37538293       0.92812556
H        5.46039904      30.26726809       5.36476975       0.03786962      -0.39720756       0.12940491       0.61950457      -0.24124107      -0.78541923
H        4.44403385      28.97693837       5.92519780      -0.00130478       0.21902726      -0.02766528      -2.24047947      -2.61906004      -1.46652675
H        5.33877906      32.64478602       6.09946666      -0.02628737       0.09986187      -0.21723236       0.53718877      -0.23999330      -0.15721211
H        3.00765767      33.87062593       6.71920836       0.01299492       0.17295057      -0.38568263       0.34752464      -0.95713925       0.10941676
H        2.44457958      29.72453920       7.55711973       0.08213943       0.02268898       0.27576119       0.46469769       0.53532994      -0.46972200
C        5.78781592     -12.49501626      -9.70188702       0.05678406      -1.09066201       0.42560281      -1.88429499      -1.48712349       0.90625983