640
Lattice="19.152215 0.0 0.0 0.0 19.152215 0.0 0.0 0.0 19.152215" Properties=species:S:1:pos:R:3:momenta:R:3:forces:R:3 energy=-80126.8984375 stress="-0.02549910359084606 0.002495803637430072 -0.0007234573713503778 0.002495803637430072 -0.01977774314582348 -0.0015303187537938356 -0.0007234573713503778 -0.0015303187537938356 -0.021202655509114265" pbc="T T T"
C       23.34722685       5.88822504      15.48858177       0.03062666      -0.51374797       0.81331535      -0.88694841       0.02327502       1.12289214
C       23.54997574       5.45122295      14.05302889       0.17465818       0.39839217      -0.61967698       1.03681552      -3.46568942      -0.06939411
O       23.58393790       4.18924904      13.76079952       0.20703112       0.30633087      -0.03954202      -0.59193432       3.32883883       0.29319623
O       23.84268440       6.42735081      13.21994452       0.30125657       0.05906269      -0.36065211      -0.15391824       0.63309479      -0.16562566
H      -12.67004197      31.44846282       5.19569226      -0.17835262      -0.01610290      -0.17605165       0.31058520       0.06858927      -0.90328562
H       22.29900069       6.29873972      15.68090539      -0.08825219       0.15060411      -0.04071321       1.07105243      -0.26579937      -0.51390237
H       24.04996507       6.68772848      15.89244679       0.00027712       0.27323214      -0.13453847      -0.58780098      -1.05605507      -0.60919863
H       23.35421192       4.93650398      16.08624726       0.09373105      -0.00690111       0.14816377       0.36477131       0.95924461      -0.23304781
C       10.14876893       1.17306875       3.22217961      -0.40305621      -0.16422433       0.34964708       0.52702022      -0.94094384      -0.77475619
C       11.58531682       0.70097002       3.61486064       0.01510462      -0.73340723       0.31980159       0.52059209      -1.23137438      -0.00674987
O       11.85548286       0.33289584       4.83467943       0.70758093       1.03800017       1.23505408      -1.28064930       1.00954211      -1.98931646
O       12.49365302       0.60397822       2.68049840       0.18762077      -0.34066842       1.40451478      -0.65640384      -0.09231335       0.26389727
H       17.08797689      11.26752858      -8.48116540       0.17707533      -0.02041934       0.07691033      -0.22001600       0.09255725       0.79756176
H        9.64973254       0.60928603       2.34987341       0.39951447      -0.03607808      -0.31751605       1.12739539       0.70792282       1.02855122
H       10.17914013       2.25147225       2.98682173       0.03424483       0.05410998      -0.11690758      -0.09580076      -0.22192560      -0.05282575
H        9.58161833       0.98500676       4.11613839       0.10333858      -0.29958608       0.44730255      -0.73318994       0.11812733       0.39170671
C       20.71423713      12.54205479     -17.78233090      -0.51692541      -0.85934500       0.50174924      -0.31925344      -0.19320774      -1.76249218
C       21.26405281      13.90330047     -17.66341368      -0.38538235      -0.19280582      -1.39882775       2.30896878       1.10553551      -1.45497453
O       22.25087339      14.28584177     -18.31661488      -1.20996688      -0.87682406      -0.15298168      -0.56674129      -0.54913121       0.30050629
O       20.74387654      14.71522260     -16.74026019      -0.51050603      -0.72819356       0.01124895      -0.88878322       0.12589741       0.17618853
H        4.67806755       6.22142893     -26.08474520       0.08093265       0.01939332       0.12840961      -0.26366073       0.01800787      -0.00243428
H       21.10905611      11.99762010     -18.65758689      -0.08872272      -0.48659823      -0.27163566       0.22432509       0.36637267       0.25411403
H       19.64080617      12.49482824     -17.82862389      -0.03987611       0.02709627      -0.16229806      -0.61714298       0.26228830       0.18652378
H       21.04047425      12.06529414     -16.91027099       0.11357118      -0.06867140      -0.32139631       0.39796162      -1.45811415       1.64033329
C      -13.75781777      20.32689757     -14.01416365      -0.50389199      -1.03324802      -0.25588992       1.05848038      -0.03669009       0.20081130
C      -14.94950440      20.87591193     -13.27243465      -0.26259199      -0.98884923      -0.84148424      -1.11095917       0.05565703      -1.08536243
O      -15.97418037      21.18878108     -14.01600870      -0.38597710       0.18092650      -0.72563860      -0.19693840       0.09224343       0.57537782
O      -14.86791243      21.08702646     -12.05459732      -0.58585283       0.28268498      -0.91207603       0.17263852       0.08748013       1.26668310
H       12.35726210      20.59139316       1.57826960       0.05850471       0.29910327      -0.10895003       0.03768485       0.85649550       0.36637616
H      -13.97621252      19.93060192     -15.03178377       0.12491727      -0.27630052      -0.20339212       0.10344288       0.49306256       0.47016531
H      -13.25527298       0.37859927     -13.40582956       0.13810247       0.00310205       0.21938083      -0.22169326       0.71285051      -0.39814222
H      -13.09019995       2.09383606     -14.00027302      -0.10031703       0.36801165       0.14444312      -0.09828413      -1.14266706      -0.60897952
C       14.41295610      16.08026820     -25.79692011       0.22991324      -1.18513429      -0.40046115      -2.77610445      -0.79565048      -0.81218261
C       15.64569556      15.39283338     -26.12571629      -1.58095415      -0.10085747       0.09003952      -0.32827973       1.17181230       0.01055169
O       15.39043285      14.27599354     -26.78191247       0.17926964       0.38193797      -0.49214044       2.11072016      -0.74975789      -0.37248373
O       16.73567586      15.94014198     -25.86307834       0.01092879      -0.60073496      -0.17861452       0.80992812      -1.43627787      -0.14091879
H       -0.64022408       3.93506770      -1.33378523      -0.15530850       0.21647667      -0.24886149       0.31882662      -0.42411086      -0.15902355
H       13.86798556      16.42625071     -26.71999332      -0.13653123      -0.32177699      -0.00012862       0.34962410      -0.58191884       0.38501999
H       14.52781562      16.94610410     -25.23630506      -0.30295656      -0.00504839      -0.23828121       0.49358177       1.39659476       1.27554619
H       13.72487989      15.38355250     -25.25754651      -0.26599711       0.09631694      -0.11053508       0.27468428       0.37995276      -0.34834066
C       -1.38364971      -5.19217923      23.75735367       0.79830975       0.15422854       0.45603820      -0.27594936      -1.27810240      -1.49887812
C       -1.95277663      -5.19733170      22.32688784      -0.20974946      -0.60434100       0.66085010       3.08217669      -0.11853224      -1.17804337
O       -1.13438705      -4.99690146      21.31632376       0.62736153       0.23615117      -0.37837368      -1.22743368      -0.15910402       1.61774397
O       -3.17210422      -5.46489100      22.18795357       0.54397862       1.52742494      -0.65402184      -1.40633845       0.32776138      -0.96944803
H       16.70418073       2.86247893      -9.47638156       0.11940912      -0.23423979      -0.38338655      -0.32339388       0.19554919       0.73905778
H       -1.64974297      -4.23607859      24.11111028       0.01791852       0.01285882       0.34401779       0.31390896       1.04422092       1.10969758
H       -0.33245659      -5.46621425      23.80566446       0.25541437      -0.07227057      -0.45970750       0.35388935       0.46036571      -0.08003034
H       -1.92318084      -5.94101961      24.32497532      -0.44762311       0.21779436       0.04608156      -0.36375198      -0.14777261       0.41805160
C       -4.09770198       8.12775038      29.13444432      -0.61750307       0.50387501       0.28025653      -1.08346069      -0.34707642       0.63557518
C       -4.73266113       7.15659869      30.12421186       1.25346560      -0.07317002       0.93896739       1.49890482       0.42263514       0.61575323
O       -5.27999348       7.47980821      31.17708083      -0.27317359      -1.41982114      -0.74104825      -0.46361971       0.08943914      -0.41292179
O       -4.42122809       5.89648140      29.88613352       0.74396111       1.50587180       1.27886076      -0.08154136      -1.16829038       0.04104483
H       21.05042923     -20.63049313       0.35281755       0.12536137      -0.28585929       0.19832801       0.06950021       0.12125486       0.08766454
H       -3.25635237       7.68075032      28.56943469       0.16573562       0.01125743       0.09100948      -0.78236866       0.44443899      -0.04492044
H       -3.77835225       8.93420515      29.77786916       0.03570283      -0.31211346       0.14738311       0.46802044       0.72480690      -0.06751536
H       -4.98904442       8.49353686      28.58685687      -0.16949959      -0.28190220      -0.12560923       0.67601943       0.03271836      -0.55301160
C      -11.15467820       8.00108295       2.10393029       0.01983938      -0.20318976       0.91378330      -0.35567379       0.84346187      -1.31151915
C      -11.08057685       6.80162323       2.93007274       0.76868659      -0.30926119      -0.20294697      -1.43469119      -2.50215650      -0.29413399
O      -10.38874556       6.83268646       4.07773054      -1.65768079      -1.15216433       0.53109477      -0.94328213      -2.11489391      -0.15994623
O        7.45991134       5.75435548       2.55372931       0.24342018      -0.44621703      -1.77707289       1.43499470       1.58645296       1.09522235
H      -15.42656132      16.82546558      -8.05570508      -0.17494321      -0.13872384      -0.38859920      -0.35243061      -0.22885858       0.24406898
H      -12.14738711       8.09674009       1.59291638       0.07466521      -0.14020438       0.12386114       0.49008718       0.04173117       0.68052226
H      -10.50629449       7.76569827       1.26421078      -0.01018754      -0.19891311       0.05777788       0.56069630       0.27129662      -0.47885936
H      -10.79940582       8.91551766       2.58206856       0.03321637       0.15025585      -0.12279130      -0.13256781       0.00551941      -0.02958281
C       18.53757740     -10.33667582      12.00129567       0.48517318       0.58438415      -0.74166157       0.66759646      -2.02888274      -0.51064497
C       18.24246384      -9.32897921      10.99366336      -0.17119467      -0.35278758       0.57911326      -0.48584375       2.04546070      -0.98811865
O       17.15583127      -8.61469684      11.37777607       1.30088519      -0.05956010       1.11236894       0.35685360      -0.09980588      -0.65379483
O       18.85720169      10.09939471       9.94989164       1.07228757      -0.72785613      -0.88907506       0.01756367      -0.75972188       0.45478475
H       10.89392423      19.13162251      -5.48572450       0.26904161       0.01448042       0.23996812       0.51348203       0.34522510      -1.12331820
H       17.72286144     -11.08075882      11.95736749       0.14249219      -0.06579771       0.05032689      -0.04653273       0.14739199       0.33557475
H       18.60662019      -9.91656289      12.99224893      -0.13266299       0.17989332      -0.13233799       0.03081962       0.19389296       0.48832336
H       19.43567133     -10.90032737      11.70160878       0.07027399      -0.14958928      -0.33498906       0.03980520       0.25046867       0.32957566
C      -16.31924553       9.67854096      -5.25074994      -0.99275701      -0.63165299      -0.32342940       1.07213497       0.23379713      -0.50389409
C        3.68299747       9.85793140      -6.58293105      -0.44717860       0.52519681       0.18583240      -2.71535587       0.98247331       2.56727719
O        4.87084730       9.60042217      -6.28525291       0.35947869      -0.68825089       1.90357042       2.38123703      -0.55569720       0.51931262
O      -15.90531183      10.32267807      -7.64631362      -0.74990026      -0.40894778      -0.79266426      -0.26925617      -0.19281906      -0.70650542
H       19.52288297      11.29705806      -3.38935615       0.10101612      -0.08656080      -0.24879581      -1.78425229      -1.24173427       0.09879041
H      -16.41338291       8.57230232      -5.16374093      -0.13639609      -0.06994349       0.03603854       0.08723392       0.68833899       0.69292784
H      -17.25502216      10.14697461      -5.42063257      -0.15956715       0.00334949       0.11687388      -1.30005324       0.01524461       0.03861099
H      -15.83778983      10.24116061      -4.36254815      -0.21014127       0.12097341       0.18153359      -0.48887312      -1.52795911      -1.26732540
C       23.10704823      12.86743346      15.94935260       0.93483515       0.08876376      -0.13398818      -2.12492895      -0.27983677       2.58183527
C       21.59682115      12.98128713      16.27326310       0.32736407       0.56111143      -1.52459278      -0.14651263      -2.81642246      -0.20047688
O       20.91610833      11.92440407      16.52437983       0.52608029      -0.95140002      -0.78090053       0.84234858       1.27724481      -0.70750415
O       21.08329890      14.16222518      16.27050949       0.94779879       0.26860557       0.29167738       0.34553382       0.85061359       0.28895956
H       21.56120785     -16.01744560       5.99992046      -0.12477715       0.09353600       0.20389676       0.51622045      -0.03777629       0.43590212
H       23.45616849      13.88344003      15.95251422      -0.15738959       0.10292573      -0.01479417       0.80854142       0.37555510      -0.13397768
H       23.28546500      12.30477305      15.06402633       0.32411535       0.18416316      -0.26395007       0.19155976      -0.33837146      -0.96162391
H       23.44436366      12.25369045      16.83150814       0.01664562       0.22831618      -0.11938459       0.38443655       0.69942212      -0.77443522
C      -19.40989646      -8.56174631      37.20779900       0.21090321      -0.53889029       0.61667040       0.61662507      -1.10372949       1.17666459
C      -20.22818748      -8.73223734      35.96378621      -0.41215153      -0.44351468      -2.22147020       1.81605053       0.15376830      -0.15122408
O      -19.70695290      -8.39305822      15.57202810       1.28383539       1.00260729       2.13209685       1.57728803       1.03318501       1.28536618
O      -21.32013843      -9.22368987      16.96970361       1.15189249       0.11158864       1.12125698      -1.93982697      -0.52421308      -0.80637592
H      -13.68064524       9.73177939      31.02679081      -0.10430140       0.36429059       0.13491528       0.49004486      -0.01726611       0.21178502
H      -19.79102635      -7.65941295      37.69403370      -0.26525239       0.38672330      -0.18937909       0.15244789       0.13131054       0.22979110
H      -18.29908046      -8.54399282      37.15109533       0.17472833      -0.08203062       0.15049769      -0.75642002       0.28034833      -0.48477432
H      -19.68049712      -9.42658271      37.89878070      -0.22210487       0.09493384      -0.10561339       0.25582534       1.07215381      -0.93309152
C       23.59418847      -2.25206038      17.59545057       0.95391095      -0.22390869      -0.19165082       0.13676119       0.21549299       1.51960588
C       22.26128134      -1.66497030      17.96326179      -1.16969700       0.62966525       1.36768678       1.90086079      -1.44370687       1.43567336
O       21.49458281      -1.24965844      17.14452932      -0.63868757       1.07162164       0.69543743      -2.22965002       1.24955928      -2.26766586
O       22.03786953      -1.65199390      19.25072145      -0.40160285      -0.38032810      -0.30588000      -0.23792237      -0.21647462       1.78307652
H       -5.90604426      18.73919087      24.09118821      -0.13591830       0.17681951       0.16381599      -2.46234465       1.13118935      -1.01616454
H       24.06555583      -3.03885579      18.21650156       0.11834845      -0.01595396       0.11834481      -0.69870245       0.42721903      -0.18347941
H       24.25365062      -1.42281122      17.51415796       0.16576668      -0.02900903      -0.11914355       1.06971431       1.01400578       0.68402773
H       23.59047375      -2.46365630      16.58769573      -0.19427997       0.19335760      -0.10192758      -0.42945772      -1.44332576      -2.44384217
C      -10.70604071      16.92155167      -1.03651706       0.74077350       0.82950684      -0.37448020       0.76602435      -0.98091066       0.02237184
C      -11.10212107      18.28055020      -0.47322416      -0.65040553       1.27970610       1.18440662       2.24287248      -0.24353510       1.23395991
O      -10.50435759      38.06462859       0.43086936       0.89978252       0.31520642      -0.02219354       0.01263297      -0.85977149      -0.42063493
O      -12.13830800      18.77503900      -1.06050471       0.67326340       0.37198546      -0.34889833      -1.50054753       0.29104117      -1.01996887
H       -1.03754182      33.86432520      12.58094395      -0.40637190       0.21244484      -0.19341313      -0.12297177       0.10410690      -0.15277138
H       -9.65779880      35.99325800      -1.44393642       0.17145395       0.19021011      -0.06503512      -0.89273781       0.75826532       0.05097700
H      -11.44653313      16.63724779      -1.80351409      -0.05834903      -0.04272237       0.26679336       0.41486123      -0.04188193       0.15502438
H      -10.63385000      16.07725644      -0.29794741      -0.15867544       0.23764397       0.05161931      -0.57884097       0.86795533      -0.03156561
C      -12.08363325      14.15957678     -10.57177227      -1.10022401      -0.09096221      -0.54996694       0.82119262       0.34538653      -0.13542640
C      -11.45490387      13.97545625     -11.95981755      -1.16283132      -0.18203209       1.49929227      -0.35840136       0.98737085       1.15340483
O      -11.56960701      12.98088022       6.50207969      -0.50015699       1.20077071       0.41898870      -0.80143368      -1.89211452      -1.15764153
O      -10.73137742      15.01106239     -12.32841403       0.43659119       0.62951326       0.33741637       0.01240396       1.10039890      -0.20897326
H        0.45685581      -1.99356493     -48.30236689      -0.28160657       0.49701989       0.11533111      -0.23664802      -0.46640909      -0.42551336
H      -12.42171317      15.19780100     -10.53610165      -0.13447320       0.12949612       0.00091371      -0.20024450      -0.05074489       0.06184021
H      -11.16400987      14.18387318       9.21704629       0.00297335       0.03185112      -0.10124321      -0.97780401      -0.39487997       0.28083313
H      -12.90007418      13.48287098     -10.21222667      -0.39676523      -0.13383761      -0.02442505       1.04745030       0.24192524      -0.48028618
C        5.52742233       7.74574459      23.68141273       2.32635153      -0.11373149       0.05958232       0.17384815       1.77597451       0.09922603
C        4.22566754       8.53130699      23.53163730       0.87996457       0.62012884       0.58401054      -1.13813150       0.13794982       0.06090465
O        3.50147260       8.14465833      22.46583213      -0.87209559      -0.19456724      -0.47981191      -2.22474408       1.62124848       1.42836881
O        3.80658072       9.42780802      24.31522568       0.29287857      -0.01397650       0.36421056       0.92771989      -1.48537946      -0.80173028
H        2.45682084       8.70239538      22.67376403      -0.32487133      -0.13289208       0.16050062       1.65524542      -1.26020288      -1.22903693
H        5.56944111       6.81432003      23.13511166      -0.14405857      -0.13812715       0.16393901      -0.21161084      -0.13408646      -0.50139618
H        5.60707450       7.52449849      24.73338806       0.05921424      -0.13781245      -0.34489979       0.33937189      -0.06659516       0.67104787
H        6.39463192       8.42729768      23.39016208      -0.08428615       0.33949796      -0.00826453      -0.88990283      -0.92621255       0.47043446
C        5.08632661      22.98387242      22.13500771       0.38618768      -0.02613025      -0.42848511      -0.81341147      -2.72932196       0.84339887
N        5.17291908      22.20313243      20.87414618       0.65938215       0.36633625       0.63822487       0.35110021       1.94497335       1.49740028
C        4.14884784      21.97323342      20.03224253       0.99076315      -0.82125049       0.47789252      -0.62896323      -1.89019561      -0.42424828
C        4.57566892      20.94504250      19.22465659      -0.63813236       1.00410467       0.48673194      -1.76986217       1.16593146      -1.60462213
N        5.85901909      20.69919724      19.43558711       0.92520910       0.79763572      -0.01669669       1.37631774      -0.93455565      -0.30659020
C        6.22877049      21.47350049      20.45549861      -0.99155051      -1.32959019       2.03067298      -0.70114845      -0.88729024      -0.87037337
H        4.91291288      22.21988160      22.96555908      -0.19946397      -0.09462539      -0.25057059       0.15769537       0.79509485      -0.91414231
H        4.22230385      23.64542343      22.19977774       0.11901093       0.17519114      -0.13840749       0.13413414       0.30288243      -0.47333103
H        6.03659542      23.40152111      22.32375179      -0.17497433       0.30250778      -0.03022478       0.98344481       1.11436820       0.10909817
H        3.12273329      22.19835105      20.12713403      -0.23752878       0.04565772       0.16282230      -0.81708127       0.90509814       0.50650138
H        3.98335499      20.59838919      18.38436543       0.12159950      -0.31152819       0.10318434       0.23504114      -0.47751459       0.12022209
H        7.11444493      21.18869185      20.91655725       0.09123543       0.23514860      -0.67578166       1.38506699       0.42056650       1.40463126
C      -31.14997398      35.11892763      33.51814233       0.06977710       0.89069358      -1.17498703      -2.13599944      -1.89653873      -0.86833060
N      -31.36002592      33.91076231      32.62633494       0.60518100      -1.34065246      -0.72380545       1.18966115       0.37321678       0.13069808
C      -31.69383448      32.65369601      33.08372951       0.92948371      -0.20477060      -1.20278575      -0.38060471       0.19743034      -0.22162640
C      -32.13791190      31.93447529      31.99125350       0.19993213      -0.45888724      -0.32879531       0.52378625       0.87861210      -0.30423197
N      -31.99523149      32.68885643      30.84534980      -0.22183924       0.13633134       0.38724442       0.72473377       1.61099935       0.18757534
C      -31.47982455      33.90429880      31.26193198      -0.90171493       0.11883809      -0.34720910      -1.23322022      -2.26090288       0.20998037
H      -30.23433888      16.47748606      33.35995041       0.43825872      -0.33463528      -0.14834515       0.83148885       0.53425616      -0.39696267
H      -31.24681140      15.59433756      34.52564211       0.11665394      -0.21136676      -0.23583626       0.18408060      -0.12723015       0.54688954
H      -32.06321106      35.66658132      33.28613096       0.10513234      -0.22883135       0.22207539       0.28991398       0.97660983       0.18856524
H      -31.61121908      32.44294099      34.12527281       0.08041734       0.15444301       0.20996708       0.10560768      -0.27033028       0.63170791
H      -32.56622563      30.95379624      31.93321274       0.23860666       0.07849293       0.27059746      -0.02564552      -0.35595268       0.18145317
H      -31.20617728      34.72433425      30.63081531       0.02106745       0.11369835       0.01873899       0.06597871       0.38880885      -0.27450237
C        6.84544225      24.11775852       6.61441197      -1.05681442      -0.24830729      -1.25666046      -0.16457038       0.64734578      -3.77112722
N        7.81520741      23.03846347       6.43428473      -0.16162514      -0.36678458       1.20903712       0.43860191      -0.84919637      -0.42246515
C        8.86517865      22.96534009       5.55789727      -0.52726914       0.53171183       1.17012703       2.65976334      -0.43356511      -1.50179720
C        9.56691225      21.74558741       5.82350125      -0.83308627      -1.42934350      -0.41775651      -2.38631630       1.57687509       1.05185330
N        8.90059418      21.01618426       6.82527738       0.25515542      -0.07653253      -0.35330673      -1.82741594       2.91783857      -0.66455191
C        7.83486220      21.87379677       7.10447008      -0.24482209       0.29105529       1.30909887       1.51706791      -1.85636139       0.66734582
H        7.06224091      24.64047375       7.50193206      -0.22130911      -0.02426525      -0.39973035      -0.01114048       0.60518181       1.43884420
H        5.80048841      23.69372683       6.52903240       0.00076630      -0.02528403       0.15116182       0.99075168       0.55537838       0.29886267
H        7.04681372      24.89094639       5.71872101      -0.13417364       0.59967170      -0.00460913      -0.60530037      -1.77461863       1.90850997
H        9.15483511      23.74397098       4.78492268       0.18490717      -0.05241801      -0.00457273      -0.71669888      -0.87619615       1.18603683
H       10.46903253      21.38180107       5.42682998      -0.02695817       0.41867311      -0.02431701       1.03541374      -0.16416097      -0.41129529
H        7.12901835      21.67409271       7.85534760      -0.46002768       0.32159042       0.20280856      -1.10261929      -0.31807166       0.94123119
C       24.88030732      16.46710326      40.32691772       0.69187194       0.37904391      -0.81071750       0.37577412       0.07968248      -2.12051725
N       26.00976860      16.58668669      41.22754078       1.75614709       0.98818478       0.07339775      -0.24783972      -0.62579131       0.86950898
C       26.81911950      17.68097337      41.65334123      -0.73688168      -0.24315060      -0.60058952      -1.85570610      -0.13926937      -2.21954942
C       27.70427633      17.12606074      42.48418164      -0.76116125       0.61185066      -1.38234434       1.71057415       0.48578173       1.71487498
N       27.42031177      15.82815566      42.70743750       0.58855263      -0.00404620      -1.15633872      -0.40939212      -2.11381483       0.74648863
C       26.38216025      15.46069360      41.93261001       0.37055271      -0.20769465      -0.35004324       1.89575815       3.33987880       0.33470559
H       24.84220474      15.40772435      39.97755058      -0.04447126       0.16990464       0.12835000       0.14553666       0.61614418       0.02140749
H       25.04088575      17.13179097      39.41255684       0.10626568      -0.23900436       0.06318488      -0.54405725      -0.65230930       1.25420690
H       23.92318111      16.59207402      40.81783668      -0.04692449      -0.11312249       0.41385232      -0.27452886       0.59999824       0.13975197
H       26.68834746      18.69077473      41.25499401      -0.08329216      -0.06578534       0.31990884      -0.01058413      -0.50485879       0.07275254
H       28.55945054      17.54041127      43.01074432       0.10005481      -0.02438844       0.07482698      -0.06214595       0.35636038      -0.15627512
H       25.96015942      14.49880245      41.91378182      -0.06848689       0.26183425       0.15543905      -0.77862698      -0.83842081      -0.21499744
C        4.96006500      36.31128904       6.58868238       0.44038552      -0.69487043       0.90855489      -1.00718331      -2.83435559       1.18501282
N        4.91504448      36.32789104       8.13702415       0.44981898      -0.95538851       0.36564484       1.21344161       1.09932256      -3.48177886
C        5.98159527      36.78678962       8.85726287       0.22483050      -0.58146918      -0.49301703       0.15570150       0.37817514       0.06416881
C        5.57240445      36.69966161      10.15101696       0.18804787      -1.17611144       1.07807103       1.71191895       1.18498230       3.37320566
N        4.33039720      36.17775138      10.19000627      -0.34178872      -0.93806578       1.01690425      -0.33563170       0.09351350       0.99328482
C        3.93139442      36.03581005       8.96553945      -0.41318227       0.67275165      -0.16950909      -3.42136955      -1.61258411      -2.45480156
H        4.83442545      35.20294323       6.36501043       0.21613935      -0.21911689      -0.03113133      -0.26005110       1.15648592      -0.03789303
H        5.94752998      36.50606530       6.15947784      -0.23002913       0.27327095       0.49257461       0.01835814       0.66204095       0.51288050
H        4.11529337      36.86355471       6.14978503       0.08251910       0.08858596      -0.13046394       0.40726161       0.07351658       0.22324538
H        6.80464287      37.23665128       8.33163001       0.23753220       0.07357477      -0.31407412       0.24181661       0.00139999       0.21189678
H        5.89944663      37.10581376      11.15884995       0.25997287       0.37533184      -0.05694406       0.44117242      -0.47031167      -1.59147060
H        2.91662589      35.76851288       8.60162599       0.09016812      -0.02760721      -0.12533292       0.80869865       0.14841872       0.50777769
C        1.80335666     -11.69700520     -11.09713250       0.10808049       0.53795949       0.33477381      -0.39262679       1.92819333       0.02706039