640
Lattice="19.152215 0.0 0.0 0.0 19.152215 0.0 0.0 0.0 19.152215" Properties=species:S:1:pos:R:3:momenta:R:3:forces:R:3 energy=-80124.6328125 stress="-0.022486502304673195 0.0035251271910965443 0.0029014868196099997 0.0035251271910965443 -0.018333813175559044 -7.902196375653148e-05 0.0029014868196099997 -7.902196375653148e-05 -0.014717980287969112" pbc="T T T"
C       25.49410657       4.97774114      16.24219877      -0.47522148      -0.96044031      -1.28094466       1.22586560      -1.25278187       0.69424027
C       24.24003649       4.97639875      15.46911932       0.09938087      -0.38421703      -0.36344742       1.17633832       1.73626959      -0.54180861
O       24.17056108       5.72631243      14.45628011       0.71285737      -0.91016098      -0.35483332      -1.01997161      -0.94805843       0.54947627
O       23.30100746       4.24284062      16.03225403      -0.15400104       1.04988541       0.39810745      -0.84315944      -0.36032078      -0.47794992
H      -11.49763864      28.72467168       2.21299776       0.03546566       0.17411840      -0.17551290      -0.89939207      -0.12696587      -0.08035553
H       25.39035646       4.51648116      17.24520525      -0.33297359      -0.04733750      -0.08880999      -0.15141493      -0.03523076      -0.50418842
H       25.83317150       5.97135224      16.46594740       0.21120711       0.09553501      -0.04642155       0.20206255       0.88368201      -0.19006483
H       26.31085571       4.45361340      15.68703203      -0.43562645      -0.21273236       0.11028254      -0.51146692       0.31306833       0.26775065
C       10.16404306       0.05081720       2.65653132      -0.64899831       1.31131369       0.72393122       0.46261421      -2.45704556      -0.40417892
C        9.58644297       0.21121460       1.33230732       0.03992762       0.59591260      -0.57409329      -1.09115720      -0.95086300      -1.28206503
O        8.93229869      -0.78564458       0.80322274       1.11718598      -0.66789129       0.85688230       0.87051404       1.78186703      -0.25283748
O        9.79861314       1.40799870       0.89380226       0.54742795      -1.23826034      -0.68352893      -0.55797243      -0.43532267      -0.54740912
H       21.03128723      26.90901697      -8.93506363       0.06575087      -0.19253453      -0.17807285      -0.35043621       0.47430009       0.11739417
H        9.70006256       0.78431634       3.20230720      -0.13367942      -0.15237223       0.31936636      -0.64755034       2.12402225       1.95171177
H       11.21174990       0.19029722       2.51630939       0.17050986       0.28321570      -0.13591903       1.14424551       0.37907347       0.38554040
H        9.96918730      -0.92013943       3.10626840       0.08902246       0.19517954      -0.51592713      -0.03486194      -0.27502003      -0.02812462
C       16.06959657      11.61673500     -16.40599347       0.05518253       0.22513377       0.73522566      -2.29379201       2.46979761      -0.53244162
C       17.23412836      12.54886903     -16.20337204      -0.76444375      -0.14828158      -0.11084272      -1.36805713      -1.42696285      -1.17146730
O       18.31986773      12.02142534     -16.19901329       1.96723799       0.29348237       0.12618832       2.85129166      -1.26370168       0.36153257
O       17.13065795      13.80995293     -16.01613928      -0.33998733       1.03986614       0.27475930      -0.82558697       3.07835197       0.36651504
H        4.98497896       5.56768875     -25.61150988       0.00823762      -0.21839482      -0.03461478      -0.86256206      -0.82182789       0.16965383
H       16.09346775      10.93780354     -17.23903564       0.23711916       0.19169330      -0.29164567       0.49969622      -0.14384399      -0.55783904
H       15.06368156      12.14220627     -16.40870938       0.14117929      -0.24074684       0.12485615       1.05639040      -0.13060313      -0.32377452
H       16.03657920      11.08959478     -15.51661122      -0.02138593       0.04976747      -0.11065540      -0.04896671      -1.75346184       1.95013082
C      -13.24901730      22.60664187     -13.84518621      -0.69470688      -0.09785105      -0.11611097       0.03588966      -2.37338781       0.92842507
C      -13.62923086      21.86051215     -15.11858737       1.09703455      -0.63785038       0.05611020      -1.88106966       2.45525169      -0.06003976
O      -13.12204361      20.79149157     -15.35374932       0.08279500      -0.24646729      -1.22681290       1.63381982      -2.73864555      -0.13815606
O      -14.52715353      22.40613246     -15.92419293       0.41177914      -0.28086976      -0.48140972      -0.19330227       0.38170731       0.54179645
H        9.67004957      21.10332937      -0.22236192       0.32019254       0.09984957       0.22867581       0.43941027      -0.27342927      -0.96880043
H      -12.70711169      21.77122683     -13.29532309       0.28129459      -0.01590170      -0.06399927      -0.75049406       1.40724885       0.24757862
H      -14.01866357       3.99059566     -13.27761925      -0.30040339       0.56808867       0.12320759      -0.33369529      -0.63478267      -0.16697763
H      -12.52936395       4.19411823     -14.01206261      -0.16867063       0.11170289       0.03976725       1.44796777       1.35473263      -0.71677417
C       16.47588798      15.18909494     -27.09786013      -0.34603644      -0.65697039      -0.18890695       0.65720129       0.49685481       0.18569207
C       17.60753638      14.65582743     -26.26877797       0.28014319       0.52899660       0.27990118       1.23563361      -0.16186994      -1.19766772
O       18.74454939      14.35685395     -26.84175540      -1.54808833       1.83398774       0.81319040      -0.36859614      -0.26359180      -0.27894443
O       17.50203837      14.51440187     -25.03161207       0.25187544       0.02686985       1.74917059      -0.39138597      -0.20110862       0.98723918
H       -1.65516963       1.92742264      -0.47759434      -0.36091077      -0.09187902       0.12896853       1.44318700      -0.20122151       0.72449851
H       16.73160924      15.34438525     -28.16810788       0.31233726       0.04688241       0.39181415      -0.32698071      -0.23501503       0.59661043
H       16.19003227      16.10397610     -26.58298474      -0.21530561      -0.07905009      -0.16426191      -0.09722576       0.80778229      -0.21633804
H       15.62229518      14.57201774     -26.89651972       0.09452050      -0.08074811      -0.01780863      -0.73972017      -0.83417964      -0.33389610
C       -6.04292184      -2.98529665      20.58716564      -0.11314874       0.09607703      -0.76089362       0.60189140      -0.61142975       4.51662588
C       -4.93735519      -3.71505674      21.50024503      -0.27812908      -0.61190830       0.89625039       0.23120308      -1.07937598      -1.51455617
O       -3.94626174      -4.30002190      20.92292297       0.50480574      -1.92995440      -0.12287807       0.14499044       0.23826671      -0.65380555
O       -5.06942076      -3.75946724      22.73434160       1.08495892       0.69815713      -0.00799677      -0.79078168       0.43726504       1.76772714
H       16.67942736       0.35706509      -8.28880620       0.19665310      -0.15705352       0.19922265       1.11334252       0.20515762       0.53707570
H       -6.46500077      -3.61609897      19.83300828       0.32731194       0.06026691       0.12099190      -0.08662821      -0.09046555      -0.75383914
H       -5.50306669      -2.09946737      20.34970334       0.40460823      -0.00133671       0.21570757       0.07942715       1.02575922      -1.24746799
H       -6.75760114      -2.70835635      21.42728485      -0.01322484       0.37412120      -0.17949249       0.16870928      -0.15684539      -1.45099080
C       -5.05860474       5.86467685      29.88095735       0.75569853      -0.24748639       0.26198161      -1.08171368      -0.21714306       1.54880691
C       -3.87138970       5.26990267      29.24769251      -0.23924091      -0.74870984      -1.11952582       1.48162985      -1.62073076      -1.55615485
O       -3.66668782       5.23961449      28.01040486      -0.14342634       1.34298143       0.88195518      -0.35614043       0.34343314       1.85491872
O       -2.97346328       4.55821961      30.04149883      -1.49978857      -0.75969961       0.57815263      -0.36413383       0.82189071      -1.89726019
H       22.27333741     -21.56660201       2.48396680      -0.04946653       0.01609522      -0.41036328       1.62956202       0.69872528       2.07719827
H       -5.82976001       5.05654908      29.99248990       0.13897186       0.16202944       0.36740799       0.38848725       0.37879479      -0.12100092
H       -5.48204565       6.59434352      29.20994775       0.18941889      -0.05841427      -0.14801578      -0.19603965       0.44204876      -0.30951166
H       -4.98728030       6.29661387      30.92681438      -0.06081823      -0.20346006       0.17868518       0.41292682      -0.47727010      -1.15969718
C      -14.80481330       4.95756009       0.72508920       0.49103552       1.22818596      -0.25590945       0.21163738      -0.48353994      -1.91657102
C      -13.54858252       5.61675897       1.16620159       0.74314129       0.31804640      -0.24543333       1.33583081      -0.06288147       0.43495691
O      -13.11671971       5.28078488       2.44459433       1.56305060      -0.30198967      -0.99811195      -1.24801075       0.14285553      -0.43440825
O        6.28859613       6.34159793       0.42113358       0.08751158       0.10683348      -0.12130837      -0.72617209      -0.46431470       1.12691057
H      -16.70894643      19.57173085      -7.24250967      -0.38203889       0.27885084       0.09218166      -0.45434424      -0.72091532      -0.10040843
H      -14.86545539       3.93448623       1.05627717      -0.14780223       0.43106787      -0.20323670      -0.13619575      -0.46884313       0.68954962
H      -14.77544674       4.85452350      -0.38885301      -0.07305249       0.03015919       0.41747504      -0.09742108       0.48311469       0.54522043
H      -15.68268260       5.51719478       1.01429501       0.21268580       0.25301549      -0.32308957      -0.48559827       0.48615733       0.26646370
C       23.50945608      -8.70172269       9.91319540      -1.07645035      -0.60185237       0.88607607      -2.27604032       1.26701427       1.40006065
C       22.62744411      -9.51584065      10.92632904       0.29940545       0.57421466       0.98264807       2.61170912       1.04909766      -1.63994503
O       22.15718429      -8.80168901      11.87820633       1.28779110       0.07060643       1.08927053      -1.46925044      -0.77472484       1.53941905
O       22.51245108       8.40948889      10.76169191       0.72274581      -1.10240641       1.90997536      -0.71447504      -1.22024179      -0.09696621
H       11.84840676      16.50306537      -9.05397452       0.33269421      -0.20930330       0.34697627       0.77078915      -0.20284811      -0.89795661
H       24.37816681      -8.19525004      10.31388269      -0.09589182       0.10741119      -0.00051608       0.15367344       0.11800963       0.80571020
H       22.83857841      -7.86980374       9.53110742       0.17223246       0.06809152       0.12426396       0.81312668      -0.95219421      -0.09207976
H       23.86318025      -9.36471953       9.18646847      -0.10483318       0.06041822      -0.13382199       0.30326721      -0.93673360      -1.65748727
C      -13.12449571       9.15606635      -1.85773507       0.64849760       0.81375432       0.54210608      -0.57292575       0.01363981       0.14901359
C        5.37939090      10.58037585      -1.92629388       0.31013307      -0.16017875      -0.45116383       1.33644199      -1.45883763      -0.05126565
O        4.95548776      10.95909904      -3.11045151       0.26387211      -0.45390006       0.63263856      -0.34125945      -0.03248680      -1.76020110
O      -13.80723875      11.33097992      -0.95641561       0.61385821       1.34112218       1.00785298      -0.25880098       0.08653474       0.46857148
H       15.11670864      10.94826211      -2.41751266      -0.08512809      -0.18299054      -0.03312700       0.86374509       0.45431605       1.05354226
H      -12.06703257       9.28891930      -1.56125358      -0.11350870       0.17732600       0.06379423      -0.30288479      -0.18394625      -0.02879704
H      -13.19089393       8.52697152      -2.78264372       0.17580216       0.12418425       0.28388615       0.07670302       0.85982680       0.55370998
H      -13.64922666       8.58355331      -1.06892101       0.20642257      -0.02270065      -0.26654842       0.36561361       0.15398532       0.00384943
C       18.47838520      10.98177177      18.95084611       0.36809805      -0.12743338       1.07725119       0.27484283       0.69148636       2.69428706
C       17.43700395      11.90405457      18.36384406      -0.33860754       0.23903390       0.07849762       1.25723839      -0.37634361       0.37752712
O       16.23674824      11.63946863      18.50143388       0.66057006      -0.48972212      -0.62472054      -0.94898075      -0.17753164      -0.22019783
O       17.93876670      12.92192006      17.71227859       0.11280070      -0.15112827      -0.77631024      -0.34386647       0.25018883       0.01949733
H       22.32326150     -16.18921449       3.64864538      -0.07073238      -0.25510396       0.37197349      -1.05650938       0.14287597      -0.02890927
H       18.09361390      10.79490985      20.02418784       0.08170533      -0.22026102      -0.08452234       0.81778371       0.18531187      -1.47144353
H       19.45852948      11.52121040      19.06851977      -0.01871055      -0.03474174       0.07315023      -0.84701890      -0.65217578      -0.27231252
H       18.63876235       9.98703473      18.53983956      -0.19630917       0.17986967       0.00905631      -0.13414206      -0.03066146      -0.56974411
C      -21.28915605      -8.60272639      34.47730515       0.05370189       0.20932544       1.32290616       0.70322442      -1.22635949       1.62491202
C      -22.74185719      -8.66260606      34.07090181      -0.47908856       0.74060213       0.33607548       1.38130188       0.19647136      -0.02952862
O      -23.63017120      -8.60848135      15.98767019      -0.06433598      -0.64688347       0.20847979      -1.07671559      -0.40658161      -2.13441014
O      -23.03466674      -8.80028119      13.73298268       0.35863218       1.19553823      -0.84857481      -0.96120989       0.14729923       1.33864641
H      -13.71823308      10.39976991      34.33486561       0.18023885       0.22502645      -0.05973485       0.22671567       0.32015854       0.88357288
H      -21.12110946      -8.18864561      35.53362801      -0.14945865       0.06727650       0.43938966      -0.37057298      -0.93545270      -2.33842587
H      -20.65701672      -8.09446363      33.73835183      -0.25192001       0.42543978      -0.43000603      -0.37532377      -0.04684115       0.06415445
H      -20.97124760      -9.71795036      34.50633829      -0.29219108      -0.04654172      -0.10619877      -0.16097257       1.54741156      -0.00390082
C       24.92198563      -2.32121641      23.74706085       1.16684151      -0.20107483       0.54965571      -1.67337120       3.07209611       0.08164439
C       23.93431323      -2.89348999      22.75273847      -0.54913120      -0.86165029       1.08683195      -0.98022538       2.91190577      -0.07755029
O       24.12441735      -3.89359377      22.13754385      -0.92974178      -0.75211987       0.58275442       0.22308499      -2.14111137      -0.91059566
O       22.77207959      -2.08344797      22.52224037      -0.30264621       0.53784570       0.06756708       0.42245275      -1.25975192      -1.33372962
H       -3.16087938      23.95992827      21.68799081      -0.41675513      -0.23170787      -0.10259782      -0.17832080       0.96476036      -0.78990948
H       25.65574082      -1.51729409      23.37795969      -0.13492128       0.32637373       0.16786958      -1.23816204      -1.07676959       0.09990090
H       25.47150924      -3.08120347      24.17707434       0.22027548       0.00949665      -0.26972709       1.41449809      -1.91529131       0.80641079
H       24.32035251      -1.86803423      24.58856805      -0.09378135      -0.08304540      -0.18496891       0.56518847      -0.08717536      -0.71833110
C       -8.53719839      22.70919063      -5.94040379       0.30499948      -0.00551708      -0.19567324      -2.96530247      -1.53415966      -5.22841740
C       -9.94999301      22.12970815      -5.68213099       0.19869773      -0.12570654      -0.38439381       1.70301545      -2.24389553       0.78225464
O       -9.91813577      39.88686626      -5.52127376      -0.17059530      -0.32255386       0.49888608      -1.97221386       2.17237806       0.44359562
O      -10.94130499      22.83441486      -5.56685164       0.70630306      -0.47917703      -0.22680937      -0.44187307       0.26582876      -0.01857531
H       -0.32918973      32.83744869      13.61696975      -0.02871984       0.03400336       0.30089242       0.89996481      -0.04795006       0.20894945
H       -8.00651924      42.08418913      -5.12463963       0.21226409       0.13327555       0.23216946       2.03575993       0.79210734       3.64456153
H       -8.72077996      23.63517789      -6.54348665       0.41543715      -0.00402329      -0.10263527       0.44396937      -0.61899376       0.35310787
H       -8.01857471      21.92401708      -6.57855271       0.08620966       0.21420614      -0.26366289      -0.16925742       1.05386496       0.73706234
C      -10.76974611      10.68787374     -11.58197380      -0.20728282       0.22204862       0.83992672       0.62551117      -0.81633615       1.14032102
C      -11.81018588      11.64021707     -11.15438167      -0.04118605      -0.22865548      -0.69498027      -1.81005621       1.08473480      -2.44340467
O      -12.91017234      11.74229610       7.45814323       1.54999977      -0.26021398       0.14389662      -0.87370360      -0.56474936       0.02856773
O      -11.39797963      12.49743509     -10.26186660       1.06466626       0.61199370       0.64951317       2.78524828      -0.07090753       1.81716084
H        0.58107130      -4.21339653     -46.98755102       0.22437770      -0.30277731      -0.07472138       0.30870533       1.12647855      -0.30878687
H      -11.06942637      10.17253993     -12.51669406       0.02786049       0.20347289      -0.06182460       0.47203845       0.58010387       0.17328915
H      -10.85956898       9.92403407       8.40362041      -0.21949812       0.03790062      -0.04982621       0.91125280       0.22005746      -0.72305363
H       -9.79004998      11.27284858     -11.56829164       0.20720244       0.08361185      -0.28411282      -1.01607287      -1.27941906      -0.24612689
C        3.91924739       8.86429130      25.20366678       0.88900713       1.06349111      -1.22523304       0.51035953       0.68451887       0.86961639
C        2.51365499       9.08894676      24.87240907       0.60104491      -0.12026069      -0.44293261      -2.34994245       0.44926077      -1.77184701
O        1.62868479       8.03643315      25.17441426       0.84189539      -1.03417229       0.74320429       1.22889256       2.06104302      -0.49457264
O        2.17768432      10.13376649      24.24465096       1.33812341      -1.19983443       0.26626652       0.09359896      -1.77487731       1.37547159
H        0.78615847       8.18807498      24.57242667       0.23616784       0.09621334      -0.14150104       0.29275185      -0.62095338       0.26768258
H        4.52341421       8.77192586      24.31794283      -0.14885684       0.14904052       0.27330441       0.35149506       0.62845731      -0.77601486
H        4.11618732       7.94970280      25.68974815      -0.10388479      -0.13801366      -0.09564107      -0.12469152      -1.23047209       1.13765001
H        4.20946222       9.72362993      25.84004608      -0.24195334       0.10263497       0.01349194       0.43296188      -0.29694349      -0.36385795
C        3.40622037      20.15398043      17.42926038      -0.64680272      -0.16412549       0.35622771      -1.65141940      -1.90271819       1.60674071
N        4.39605261      20.01581404      18.53161747       0.64354692      -0.36482823       0.37823100       2.78983426      -0.73707819       0.94977939
C        4.34520535      19.82674637      19.96217097      -1.91567935       0.06335618       0.38879872      -1.69602585       1.52734423      -0.41088295
C        5.56973303      19.56049185      20.45477492      -0.03657814      -0.67698594      -0.73983043       2.35935402      -2.55542803      -0.42454797
N        6.39970448      19.28496637      19.34311739       0.00082351       0.79018292      -0.21446853      -3.42517281       3.10576081      -2.38586116
C        5.70904091      19.77678402      18.17453642      -1.16457727      -0.79900409      -1.40195398      -0.51316333      -1.26867938       4.92849350
H        3.56107898      19.27272711      16.76853323      -0.11920123       0.19033736       0.06132153       0.08761051       0.66907758       0.13137770
H        3.50954653      21.08307672      16.87784442       0.00107648      -0.24832688       0.19831455       0.00694749       0.20287755       0.23000479
H        2.40661938      19.95170896      17.92787988      -0.16850868       0.03737592      -0.14987227       0.83803248       0.77692032      -0.80033213
H        3.52071340      20.10012751      20.62009119       0.13011687      -0.10611573      -0.00930875      -0.26254809      -0.08623585      -0.57966733
H        6.01553258      19.34665658      21.47431964       0.08533382      -0.12432114      -0.14434553      -1.04870033       0.62845832      -1.23056817
H        6.10689728      20.32281449      17.38067161       0.02311861      -0.28978311       0.19732551       1.15666962       0.19516511      -1.58944631
C      -32.85980662      33.61393473      38.35616376       0.20962557       0.11323267       0.13448476       0.62061620      -0.35714594       1.56354213
N      -32.60272726      34.33414553      37.09774284      -2.06378594      -0.01781403       1.01987678      -0.02713776      -1.09033751      -0.08865917
C      -32.61649081      35.68468996      36.86713933      -0.30299823       0.23344261       0.24332970       0.38505840       0.89057469       0.45156077
C      -31.71064893      35.91534298      35.82344034      -0.18171435       0.47997881      -0.51417872      -2.04293203       3.61459255       1.09376776
N      -31.22690899      34.78090201      35.42560438      -0.06515793       0.77510900      -0.68063932       0.40679944      -4.18021488      -1.17207980
C      -31.82442543      33.75964119      36.13696641       0.50524966       0.25819349      -0.70266303       0.94447029       3.38584018      -0.59448242
H      -33.28796716      15.10074582      39.18613094       0.33111453      -0.58023072       0.03681826       0.53348947      -0.37609905      -1.35989892
H      -31.85361625      14.06493049      38.73753805       0.25591737       0.24585098       0.08865091      -1.28943551       0.49646154      -0.55709195
H      -33.52747561      32.73854314      38.21128599      -0.04382756      -0.04399368      -0.08154304       0.41930228       0.42057347      -0.21292087
H      -33.07658832      36.36741651      37.57417875      -0.04808963       0.08974983      -0.08906118      -0.11234638      -0.22256109      -0.16484278
H      -31.49886414      36.89672525      35.32703258      -0.06698222       0.03762836       0.02566981       0.00172722      -1.14929605       0.39662084
H      -31.45797039      32.79032834      36.07267307      -0.36895318      -0.16068750       0.29740422       0.22074436      -1.82135880       0.15526202
C        7.75168710      18.64353354       9.35025270       0.75828090       1.49964666      -0.60090744      -2.24252796       1.08475780       2.12809062
N        8.14349672      19.28484105       8.11571256       0.08832321       0.88949214      -0.75455862      -0.52306902      -0.66629606      -1.56785321
C        7.38042940      19.70177610       6.98159029       0.68468818      -0.08427964      -0.43217253       1.70621872       1.26652098       0.40989426
C        8.35396448      20.04763728       6.02230231      -0.13329547       0.73860082      -0.36513481      -0.66092819      -2.23548388       0.06307146
N        9.61918725      19.59729077       6.44549328       0.65801561      -0.07349376       0.11877996      -0.13044584       0.47558266      -0.12261903
C        9.43740577      19.12506024       7.66957513      -0.36785473       0.08627641      -1.14455026      -0.90183127       0.65824366      -0.28238803
H        6.61761611      18.57397358       9.38260535       0.00683570       0.06982178       0.20251643       1.13450992       0.17298611      -0.07222641
H        8.04847216      19.27552637      10.30734601       0.12962162       0.23741287       0.22703111      -0.33235279      -1.27641916      -1.91135120
H        8.10442672      17.60785223       9.41209773       0.24966873       0.12272946       0.13221616       0.39377981       0.26155481       0.04175050
H        6.30203091      19.80865117       6.88141462      -0.12597108      -0.02256863      -0.05039789       0.16699409      -0.23976526       0.52130723
H        8.12128657      20.14653022       4.94188452       0.04792645       0.36823747      -0.34694748       0.28949630       0.48691598       0.75402164
H       10.06508960      18.55952770       8.33157926       0.02862060      -0.15397747      -0.33349950       0.88498467      -0.11379099      -0.23064703
C       25.38065168      17.45063392      50.66106249      -0.21729645      -0.13923526      -0.10331836      -1.57009721       0.76320988       0.42802349
N       24.97582235      16.25810194      49.80156929      -0.75458136      -0.41654838       0.16848095      -0.03094256       2.21210384       1.82041478
C       23.76931295      15.79993742      49.21927269       0.08105117      -1.21079573      -0.67280963      -1.28596771       2.08681178       0.43242872
C       24.08751706      14.62103476      48.69270536      -0.54255064      -0.82833968      -0.84350344       0.57220268      -3.21057081      -2.00191092
N       25.44392828      14.33565491      48.84184442       0.39003919       0.96841422       0.43820173      -0.00598618      -0.58296800       0.13883361
C       25.92258415      15.33618686      49.58217322      -0.34318173       0.83374101      -0.30698081      -0.59173048      -1.42874718      -1.35109210
H       25.18323577      18.41279832      50.12756453      -0.05496118       0.02091115      -0.17535891      -0.23671371      -0.68253392       0.20420691
H       26.45396373      17.48054389      50.83881640      -0.15686361       0.31026807      -0.05783253       0.26463413      -0.60097599      -0.12530005
H       24.88280932      17.50991256      51.70109950      -0.33958763      -0.22916750       0.06061922       0.47246537      -0.43999049      -1.59010625
H       22.79907590      16.31175737      48.94221619      -0.01005236       0.04299344      -0.05504227       1.58090758      -0.01067811       1.02230167
H       23.46060036      13.90521654      48.07761565      -0.20612913      -0.16857810      -0.06220789       0.65906948       1.13826871       1.02167034
H       26.92179659      15.37257710      49.94382487      -0.06304159      -0.01882554       0.05803333       0.54705727       0.26796818       0.38340014
C        3.15189060      38.95342093       6.86984161       0.07051058       0.75022149      -0.21893296      -0.00979708      -0.65343493       0.12084273
N        2.91762222      39.34759286       8.23393356       0.21131137       0.12988613      -0.20721140      -1.78079784       1.72127748       3.20502186
C        2.18870049      40.52202307       8.65064321       0.60340525      -0.30898664      -0.16968198       1.50713098      -1.79727292       1.30493307
C        2.09844458      40.55141211      10.04543658       0.06194362       0.17170550      -0.54464561       1.87737989      -1.79481792      -2.05683494
N        2.77588233      39.40751760      10.49924262      -1.29680685      -0.54148715      -1.24082779      -0.11899867      -0.69955206      -0.58837795
C        3.16873142      38.68629939       9.40703670       0.76418498       0.14363511      -0.41608017       0.24523595       0.14663076       0.21272561
H        3.61643403      37.93973818       6.86540248      -0.00907108       0.03029854       0.18624890       0.28574640       0.90712869      -0.03753658
H        3.71140999      39.79321891       6.45992754       0.07342008      -0.06575333      -0.21391437       0.41048315      -0.40568900      -0.80756831
H        2.20234988      38.82212870       6.35675082       0.19362243       0.23496068      -0.09477852      -0.30814400       0.24538779      -0.32460958
H        1.71530427      41.07413228       7.92643973       0.10030479       0.07152322      -0.04992221      -1.08418596       1.41832995      -1.62411594
H        1.70959726      41.27532259      10.72870172       0.00397803      -0.06725295      -0.37426744      -0.20321977       0.41746652       0.09233725
H        3.53012924      37.63812472       9.35488675       0.06582470       0.00099291      -0.42638256      -0.17323312       0.86904961       0.40916047
C        5.02578017     -13.28866421     -10.83847104       0.20458927      -0.09167330       0.08065864       0.05782053       0.74307841       0.67501026