640
Lattice="19.152215 0.0 0.0 0.0 19.152215 0.0 0.0 0.0 19.152215" Properties=species:S:1:pos:R:3:momenta:R:3:forces:R:3 energy=-80124.3359375 stress="-0.019798967987298965 0.001617759931832552 -0.0005067875026725233 0.001617759931832552 -0.020915716886520386 0.004530681762844324 -0.0005067875026725233 0.004530681762844324 -0.02065429463982582" pbc="T T T"
C       20.00104079       7.56911010      16.54504724       0.62644564      -0.79518534       0.41333533      -1.14936423       3.86233616       0.51381612
C       19.04027206       7.49426278      15.37680614       0.22480340       1.31266854      -0.19395195      -2.21368408      -0.42549652       0.62588286
O       18.18936997       6.48263383      15.42015548       0.43729820       0.29452171       0.25294260       1.86291385       1.19838464       1.08986568
O       18.89113906       8.43937608      14.54267822       0.96477548       1.24955577       0.52273622       1.01669443      -0.43511745       0.02223325
H       -9.09174028      31.13490391      -3.27238955       0.09723911      -0.00395680      -0.13774587       1.57960892      -0.18304971       0.70705783
H       20.79317121       8.27105379      16.32832328      -0.01540415       0.05722015       0.29682482       0.72052550       0.17082542      -0.64428818
H       20.39969772       6.69180167      16.93209616       0.33040679       0.13570299       0.10014268       0.33158678      -2.04897165       0.60749269
H       19.50834257       8.20362667      17.40434651       0.06907418       0.20972704      -0.08398116       0.23954916      -1.52526116      -1.27932441
C       11.33010158      -4.19335690       9.75622979       0.84222335       0.85330003       0.49462580      -1.09749675      -1.19420087       0.43257809
C       12.11525870      -3.82713298       8.56216170      -0.94434898       0.62313347       1.13664379       0.25246108       0.88263690      -1.51518822
O       11.77366681      -4.27706539       7.39506464      -0.57746536      -0.58332991       0.48054237      -0.21829978      -0.56235534       0.73804349
O       13.03419439      -2.97621997       8.65532600       1.10427245      -0.37938601       1.24816928       1.36736548       0.68855971       0.37840199
H       16.00787490       9.93042592      -9.10770871       0.47413558       0.41049486      -0.12409501       1.29967594       0.79937094       0.44324780
H       11.55009295      -3.86082987      10.78488465       0.02104001      -0.06586062      -0.00289483       0.68509841       0.36115772      -0.64488208
H       11.32304716      -5.30176109       9.79023288      -0.41376470      -0.03385723       0.02061718      -0.52620792       0.29083475       0.04018936
H       10.32024711      -3.80208691       9.54187715       0.03589652      -0.15739397      -0.21757867      -0.11972801      -0.52655309       0.10779801
C       21.28795642      15.20946324     -16.37244010      -0.25017690       0.09610501       0.60980686      -1.70531642      -1.12418544      -0.62525266
C       19.84045159      15.04679009     -16.12895340       0.14054203      -0.89795248      -0.34238975      -2.48155785      -1.48261023       1.44995594
O       19.38583000      14.41112005     -15.15750981      -0.12663278      -0.40423097      -1.18111158       0.77610195       0.47335243       0.62849373
O       18.92503353      15.36926710     -17.05280168       1.09254759       0.06985119       0.11971089       0.72539246       0.60227436      -1.00311530
H        0.01381154       8.17919931     -25.35361726       0.01496349      -0.14307617      -0.20271261      -1.09481156       0.03766997       0.74046791
H       21.88038352      15.14784638     -15.52801322       0.14045696       0.55378559      -0.40525156       0.86759591      -0.73607159       2.31700182
H       21.57136026      16.10251204     -16.78847858       0.20605486      -0.04886781      -0.29371691       0.36611786       2.30693793      -1.93549538
H       21.43024051      14.35149096     -16.99709145      -0.10250245       0.06148839       0.39056377       1.02999365      -0.46241254      -1.00290179
C      -15.17759731      21.85366562     -12.03730201      -0.05498464       0.39573933       0.68940050      -0.08781672      -0.81574726       1.41511106
C      -16.11945609      22.79490677     -12.57658125       0.11101211       0.22384678       0.37921910      -2.63347101       0.53047478       1.41853702
O      -16.11270302      23.19120751     -13.70501203       0.13604299       0.30454954       0.42120624       0.32745376       1.26531565      -3.18400073
O      -17.13357104      23.17756583     -11.71608620       0.69981259      -0.46594520       1.84512554       0.22781086       0.07195947       0.29428649
H       12.13952564      19.50919160       1.07123688      -0.07007809      -0.16030448      -0.01737139      -0.51830947      -0.49390143       0.05088772
H      -14.22721245      22.41381170     -12.01371438      -0.35013404      -0.03931336       0.22115649       0.25611442      -0.62034488       0.05210988
H      -15.17189256       1.81170544     -12.72627423      -0.03348137      -0.14727863      -0.19777703       0.45010453       0.63587666       0.97923070
H      -15.55877825       2.51852681     -10.98949030      -0.03774571      -0.01607721      -0.01858125       0.87943703      -0.50263608      -1.01805723
C       15.95516499      18.71688944     -27.95878210      -0.32252394      -0.02087086      -0.97266786       0.53179759      -0.37086517       0.48469841
C       16.05141133      18.66399286     -26.45018608      -0.85819513       0.16545029       0.54447557      -0.49194258      -0.92705184      -1.10944486
O       16.22204901      17.51634242     -25.79746217       0.44439450      -0.39448790      -0.59313720      -0.51555359       1.66917193      -0.83141649
O       15.97294988      19.78072213     -25.96164481      -0.19155114       0.03035681       0.11872036      -0.05578434       0.94428885       2.05677128
H        1.36981924       4.64243658       6.98662109      -0.09444945       0.10195776      -0.29204658       0.31846803      -0.25725457      -0.17610502
H       15.63185256      17.78655949     -28.38616413      -0.11300846       0.00998181      -0.00699674       0.21626946      -0.66814208      -0.60339487
H       16.96580254      19.04737501     -28.22900489       0.03529414       0.21612298      -0.01527488       0.01544458      -0.41842052      -0.62316519
H       15.30386191      19.52410314     -28.25908120      -0.22581216       0.18397018      -0.17969663      -0.39391610       0.35526282      -0.00298548
C        0.21624735      -7.52817583      19.06097815      -0.70131655       0.03531554       0.35414906      -1.51896524      -0.10653108      -2.13520932
C       -0.37961951      -6.11681861      18.92189567       0.29649720      -0.65144526      -0.23040030      -1.11652374      -1.20261896      -1.98888087
O       -1.51868365      -6.15514387      18.23622308       1.89337181       0.03882623       0.33718010       1.75387490       1.35351419       1.41505361
O        0.34069934      -5.11321331      19.27076238       0.03538255       0.52001866      -0.37854338      -0.98145229      -0.77893502      -0.29535306
H       17.18550633       5.48500167      -9.76009538       0.41652897      -0.22561842      -0.23834565       0.81554377      -1.04206538       1.66524982
H        1.16742013      -7.40507589      19.43750093      -0.03587510       0.14721578      -0.03960350       2.63442707       0.01334885       0.61608070
H        0.18931348      -8.12381594      18.06658801      -0.02019194       0.48756172      -0.16784449       0.11007980       1.15323925       1.43451142
H       -0.32328062      -8.12724250      19.76369318       0.31939267      -0.09372789       0.09436606      -0.85631382      -0.35380593       0.59877509
C      -10.58338270      -0.40110076      21.43081295       1.49778785      -0.29065567      -1.12697294       0.42348033       1.96480012      -0.65621150
C      -11.09791078      -0.84852269      22.77255526       0.58083734      -0.50230522      -0.43470654       0.85142583       0.24790184       0.02938002
O      -12.03686325      -1.61707994      22.72510936       0.57182814       0.42609494      -1.29620535      -1.86340082      -1.59940076       0.34807023
O      -10.59662272      -0.50275403      23.96013861       0.19994919       0.18036728      -1.65897317      -0.41436690       0.12243927      -0.71259058
H       20.27401596     -19.29471932       4.73157732       0.02696340      -0.28702835       0.05918538       0.26350734      -0.39108098      -0.17528397
H       -9.91648645       0.54087861      21.48399809       0.18202645      -0.27874328       0.26267924      -1.35446608      -1.16994977      -0.05945149
H      -11.52321324      -0.29012154      20.76316072      -0.21197214      -0.15068041      -0.30149536       1.81143582       0.10682893       0.88777828
H       -9.92510010      -1.15881421      20.98876461      -0.03812605      -0.10459113       0.15025668      -0.14253438      -0.33168900      -0.01667570
C       -6.74251155      12.97872242      -4.39739111       0.46609412      -1.50224830       0.29085544      -3.61974430      -1.35451686       2.60345745
C       -7.53048536      13.53343758      -3.13745224       0.14439723       0.12817557      -1.49098515       2.70460320       2.28223228      -1.21136415
O       -8.67660833      13.02308425      -2.85047232      -0.37034499       0.30935515       1.08854435      -1.27204776      -0.23627716       0.12134290
O       12.14459301      14.57422977      -2.56860997       0.48660507      -1.11699444       0.44710022      -1.65941691      -2.69219589      -0.65619522
H      -12.81802989      12.75126430     -15.15753899      -0.14625837       0.30077529      -0.44461429       0.15764660       0.26105022       0.65622133
H       -5.98321973      12.37510457      -3.97574574      -0.04161125       0.27192348      -0.00586765       0.77073359      -1.53517425       0.26899031
H       -6.22132951      13.76989509      -4.74868948      -0.20298486      -0.01323524      -0.09064544       1.46481848       2.75155854      -1.95036507
H       -7.47105242      12.47728999      -5.06000692      -0.29914334      -0.21714298      -0.02150398       0.79214132       0.15203741      -0.03998777
C       13.53913167     -11.24512356       9.90876291       0.65632743      -0.44217979      -0.11300453      -0.03587282       2.66320729      -1.07068276
C       14.85431587     -10.68953615      10.31095795       0.16135579       1.72897004      -0.71138184      -0.89046097       1.72198522      -0.96548700
O       15.11534111      -9.45036743       9.75552992       1.24728653      -0.90417010       0.23600513      -1.02544188      -1.13786566      -0.01443815
O       15.61361921       7.95151379      11.07817395       0.23586757       0.36287785       0.11179073       1.61893272      -1.14125383       1.59614158
H        6.49278557      23.89207235      -1.79591160       0.06783571       0.13958110       0.14801133       0.47065663       0.36240691       0.13089532
H       12.79581006     -10.75224896      10.62666811       0.10732475       0.00002404      -0.08914044       0.42600721      -0.68502021      -1.33229446
H       13.63069587     -12.28388619      10.03664949      -0.00069934      -0.01831960       0.17227587      -0.49705482      -1.65946341       0.07437741
H       13.47902992     -10.92578097       8.80374628      -0.07636531      -0.25933305       0.14654010      -0.87407523      -0.59334677       1.61102676
C      -14.42152969      11.02597157      -7.48972662       0.36734751       0.75839709       0.82591359      -0.49126339      -0.64754337       1.72692549
C        3.37026413      11.60443745      -7.25511469       0.15339322      -0.04190419      -0.49590957       2.09010744      -1.99011636       2.63187647
O        2.86113471      11.41052732      -5.99800015      -1.26782234       0.28446623      -2.29786578      -0.72752213       0.48889548      -0.49350145
O      -16.33654114      12.20853474      -8.10993088       0.11733030      -0.58348012      -1.01532610      -2.58132482       2.04344773      -2.11383557
H       23.46027694      13.08705952      -3.42170626      -0.22774988      -0.03929848      -0.14180516      -0.27182227       0.05773389      -0.15821908
H      -13.86207863      11.44508837      -6.64919966       0.10033624      -0.06440588       0.22074991       0.55295181      -0.66212916       0.53042287
H      -13.95187581      11.54008220      -8.30192722       0.29304757      -0.15695422       0.02179406       0.00369367      -0.38074237      -1.16873646
H      -14.52008671       9.88813099      -7.44007727      -0.13167726       0.01373750      -0.14024268       0.85265470       1.47097147      -0.44480741
C       20.91796798      13.48902701      16.17465444       0.85428291       1.15948588      -0.23334716      -1.39808559       0.19864881       0.82331163
C       21.94980763      14.49440578      15.81893076       0.22651540       0.57194452      -0.40538830      -1.07217574       2.67640686       0.81585824
O       23.13519577      14.13023811      15.41170723      -1.17000774      -0.27830512       0.06158340      -0.02878594       0.12100637      -0.15255916
O       21.65667869      15.74344294      16.02478234      -1.54072323       1.86640570       0.83138910       1.00901091      -1.95719457      -0.69851959
H       20.79786825     -14.55599620       4.54375054      -0.46063200      -0.51182861       0.31763216       0.31385133      -0.39012262       0.61307192
H       20.16451270      13.27105822      15.41470651      -0.04955077       0.00353934       0.20741312       0.37899706      -0.09030972      -0.87856734
H       20.20390631      13.85141936      16.97333169      -0.10958962       0.00546870       0.17721886       1.16263890      -0.01268732      -0.27795193
H       21.40963581      12.59285010      16.48342770      -0.15838774       0.00036987      -0.08484074       0.01861069      -1.00396562       0.30125588
C      -14.69483828      -9.21525374      36.52198059       0.30914800       0.16865310      -0.71029970      -1.48609054      -0.41526932      -0.64044261
C      -14.76475224      -8.39349848      35.23927240       0.84877507      -1.20399274      -1.60338761      -0.04070598      -0.65098423      -0.36942649
O      -14.38308036      -7.16855497      16.21004835       0.23446513      -0.80498333       0.50560435      -0.02698135      -0.03029841       0.05144486
O      -15.09809153      -8.99180564      15.01465666      -1.16411754      -0.25115787       0.05934616      -0.21094505       0.70906383       0.26361287
H      -15.70733595      10.95597928      33.03987654       0.16201505      -0.27301531       0.06396318       0.09791061      -0.02428591      -0.53737187
H      -14.57295842     -10.31124614      36.30198673      -0.04902676      -0.04646253      -0.22254328       0.61230481       1.25515234       0.37232429
H      -15.68314280      -9.16996511      37.05133798       0.14747351      -0.37105977       0.15657088       0.61175627       0.36466852      -0.24742937
H      -13.95536425      -8.66200144      37.08109484      -0.02308620      -0.21168210       0.22389957       0.48968959      -0.64913982       0.91583240
C       23.25745028      -1.37085106      23.82245893       0.18729874       0.51743217       0.32835355      -1.00756931       1.22385395      -1.47185040
C       22.11865574      -0.42898150      23.30941622       0.47421088       0.88035049      -0.44068641       0.44182193      -0.77616411       1.57149553
O       21.97523387       0.08330213      22.22129837       0.43709983       0.32340263      -0.31460244       0.31656915       0.25871843      -0.38152736
O       21.16431610      -0.40989196      24.32183885      -0.60965399      -0.36029821      -0.28221669      -0.05516716       0.46036714      -0.91833878
H       -4.99463475      16.11683361      26.58179752      -0.18956744      -0.26700985       0.00026040      -0.30622357       0.72371000       0.18083322
H       24.10952484      -1.53960932      23.17206655       0.07441499      -0.13855458       0.36063798      -0.11081646       0.26230270      -0.60353470
H       22.62645006      -2.23322829      23.86757623      -0.08505355       0.15720763       0.01916741       0.29628801      -1.30377746       0.68115246
H       23.64167800      -1.06591363      24.77027977       0.26866703       0.18168801      -0.06399727      -0.09280227       0.18054728       1.02852631
C      -11.66527748      16.92036970      -2.47771092       0.38500924       0.81618511       0.42552680      -1.27404881      -0.79166985      -3.22803259
C      -10.63608115      17.57254428      -1.67975757       0.03482601       0.14475609       0.64456931       2.11932611       2.98568416       0.01586890
O      -10.58643679      38.02392597      -1.67786107      -0.06048472      -1.00704677      -0.01462974       0.03709102      -3.96433449       0.80192143
O       -9.67101436      16.73869543      -1.21207033      -0.09376280       0.08410974      -0.90321153      -2.58283615       0.15428972      -0.68638766
H       -1.32407224      25.18321303      14.32509992       0.02773911      -0.12245853      -0.03211799       0.66572785       0.27290326       0.57199043
H      -12.69933539      36.30103613      -2.17729673       0.05198832      -0.12728860       0.04491885       0.25092894      -0.48840374       0.23046914
H      -11.56151677      15.86738239      -2.94039042      -0.04030111       0.37638114       0.08982271       0.09108825       1.24010515       1.69132674
H      -11.61848243      17.50051466      -3.44086110      -0.07949428       0.03788361      -0.01765757      -0.07896097      -0.10103165       0.36134440
C      -12.60195193       8.95314360     -16.61644009      -0.18203395      -0.26459796      -0.27372535       0.24655329      -2.26207972       1.51383901
C      -11.77156187       9.02141890     -15.36317775      -0.43166759      -1.20093128      -0.21581134       0.27378094       0.81821322      -1.05467725
O      -11.97238316       8.29440812       4.73790167       1.64630691      -1.86066679      -0.56376036      -0.12625760      -0.96942043       1.39902759
O      -10.80168669       9.97551700     -15.35648394      -0.52814297       0.33604385       0.92026131      -0.28103957       0.10720628      -0.91562009
H       -1.87506054       2.92829380     -39.38479771       0.13721276       0.05142996      -0.21383494      -0.92136866       0.22412004       1.70796514
H      -12.44768511       7.95388704     -17.10853723      -0.04470752      -0.02150538      -0.14200131       0.07142591       0.93697202       0.08675998
H      -12.50704646       9.77159372       1.90275459      -0.22002570       0.17167172       0.12759513       0.42911145       1.54033446      -1.39226770
H      -13.60485020       8.90590402     -16.22082083       0.00212308       0.24614686      -0.18657972      -0.79544854       0.02128531      -0.10487242
C        4.89736987       6.92392941      26.87673455      -0.66155837       0.34255897      -1.57551529       1.14740849       0.64172018      -0.00877579
C        5.32016080       8.31010272      27.41786221      -0.08186287       0.70104633       0.85101598      -1.18406677      -0.73501343      -0.96161938
O        6.19726527       9.02349706      26.61277281       0.61368609       0.14497854       0.90138247      -0.36393458       0.34072042       1.11506605
O        4.86335902       8.76555348      28.45731775      -0.84970927      -0.29359761       0.03936250       0.73971379       0.16725296      -0.75134599
H        6.45342409       8.62488778      25.76001767      -0.22214049       0.43838856      -0.33452770      -0.12981823      -0.68093461      -0.19005576
H        5.28726302       6.72237028      25.88568345       0.01493652      -0.23048215      -0.05924342       0.29393089       0.22585271      -0.44508564
H        3.83472581       6.70001348      26.79548130       0.26611005      -0.03515424      -0.05437123      -0.22519478       0.34685999       0.66479743
H        5.45250246       6.25385677      27.54435230       0.12933811       0.08151674       0.00738451      -0.46421427      -0.52206105       0.07773232
C        9.39373608      22.57824203      18.25220037      -0.07628052       0.79148210      -0.45311694      -1.06913185       1.43859875       0.98390853
N       10.38237897      21.94419481      19.14188774       0.45653660      -0.39310147      -0.20096474      -1.11396503       0.86953342       0.61769187
C       11.24264853      22.59705250      20.06342839       0.12307854       0.05545188      -0.56406399      -1.34316278      -0.55136573      -2.90565968
C       12.02969211      21.66168112      20.53064803       0.67490106      -1.03011419       0.94634611       0.67156792      -3.42127132       1.45194387
N       11.53609848      20.38723280      20.11699902       0.40541515      -0.53853234      -1.27489417       0.94552803       1.75171840       0.46561944
C       10.47948383      20.64014820      19.33381808       1.09055691      -0.88742699       0.25472302       1.03996432      -0.94186598      -0.84529978
H        9.37208099      22.24694541      17.20537360       0.05727266      -0.36894447      -0.25633492       0.32266101      -0.70509040       0.50998509
H        9.75030272      23.61362083      18.17682806      -0.34854698      -0.13637588       0.04147969      -0.41247869       0.13706924      -0.01769591
H        8.34502977      22.58555680      18.73323285       0.12622034      -0.05225283      -0.44773988       1.56920505      -0.14388873      -0.77041638
H       11.27669815      23.61897281      20.17501480      -0.10100373      -0.07721389       0.25967555      -0.04904488       2.20795560       0.10899585
H       12.79868104      21.71231192      21.26606898      -0.09521632       0.03542473      -0.25761561       0.54696047       0.08331327       0.09964037
H        9.89006960      19.93563306      18.77687224       0.07986090      -0.28995640      -0.06249977      -0.26211026      -0.47797954      -0.05821617
C      -31.25222731      32.77394298      33.38773357      -0.32266792      -0.04532428      -0.35741531      -0.75274694       1.59461021       0.25611994
N      -30.24515328      33.29900627      32.50962375      -0.13896745       0.25224169      -0.54249651       1.39690351       2.11717534      -1.22325492
C      -30.57942138      33.81517202      31.23876351       0.08529706      -0.17784933       0.06094616      -0.07938766      -1.42561531       0.28598627
C      -29.69147286      34.79441496      30.94239213       0.71105064      -0.33970453       0.78742520       0.15695220       0.85653114      -0.95095450
N      -28.74396319      34.93997112      31.96377097      -0.30960305      -0.55500938      -0.61709620      -0.47086495       0.27040029      -0.65574169
C      -29.10749552      34.04351223      32.86148968      -0.28735801      -0.35922591      -0.39382700       0.72214895      -0.96898401       1.27832711
H      -31.11497784      12.58511174      33.45960844      -0.02425991      -0.24811582      -0.02232604      -0.94361168      -1.98763168      -0.56670350
H      -32.23288060      14.12387072      33.10691986       0.02082301       0.07086985      -0.06204944       0.77955651      -1.34655166       0.41107187
H      -31.04547061      33.02483286      34.41389564       0.20845864       0.42547560       0.15441830       0.18183821       0.86370814       0.68860996
H      -31.19032797      33.24030408      30.54284858       0.20062148       0.13293664      -0.18655724      -0.23498604       0.21992725       0.37592092
H      -29.72993854      35.32618024      29.95559485       0.07394830       0.02085830      -0.06571722       0.52023059      -0.20753294       1.24710202
H      -28.42306344      33.79391094      33.72150397      -0.02322751      -0.04752091       0.03375631      -1.19482791       0.14389780      -0.77969801
C       10.07165063      25.75252143       6.92729596      -0.11611568       0.76535348      -1.03628719       2.34971285       0.45674452       0.12756863
N       10.47680531      25.07229724       8.13455585       0.60880921       1.35596330      -0.13847841      -0.29122353      -1.18049502       2.41106486
C       11.60023894      24.28688894       8.37863848      -0.86825640       0.58857071       0.62276963       0.54889488      -0.31773233      -1.10261273
C       11.42858863      23.66342266       9.60474436       0.84056247      -0.44115096      -0.64376714      -0.51364976       1.13799930      -0.76184773
N       10.18067202      24.02549007      10.15134633       0.15317407       0.01455741      -0.20693181       1.98330569      -0.94044256       0.18416730
C        9.70849350      24.84235575       9.26232973       0.78528962      -1.05642343      -1.00693061      -3.55204535       1.50573397      -0.66081125
H       10.26459038      26.83479006       7.04967693      -0.11238416      -0.14405272       0.12960603      -0.01346428      -0.28903699      -0.41474018
H        9.04078500      25.61021570       6.73062078      -0.20134560      -0.13788072      -0.34492571      -1.15529132      -0.47439995      -0.41921157
H       10.75917797      25.29318793       6.18164414      -0.07256612      -0.06117357      -0.18022252      -0.83256960       0.65686673      -0.30655223
H       12.32921349      24.12705313       7.55691484       0.07155958       0.17612819       0.16515754      -0.32775187       0.00842565       0.79186910
H       12.18502960      23.14264854      10.13235803      -0.18569819      -0.02815214      -0.00061141       0.45940554      -0.68587893       0.55964631
H        8.62103634      25.16483177       9.36155040      -0.13158109       0.04827218       0.21286277       1.44819367      -0.09177947      -0.63605666
C       24.42763884      17.53912281      38.51985652      -0.48040833      -0.29181134      -0.81269151      -2.41129684      -1.14890146       3.50199366
N       24.55313869      16.01842355      38.67848832       0.18131803      -0.20279064      -0.14433712      -0.94329339       1.37764263      -2.04793429
C       24.03221972      15.07935366      37.78297602       0.43625843       0.12112967      -0.04703658      -0.19815128       1.31873083      -1.18459511
C       24.40892063      13.84636317      38.23563770       0.42540358      -0.39336955      -1.48610828       0.16426274       0.12460321       1.75164104
N       25.05576185      14.01276970      39.50117293      -0.08634976      -0.69788719      -0.69240684       0.42646605      -0.31296396      -1.65310049
C       25.16431288      15.32958935      39.62159345      -1.71998137      -1.03278673      -0.24452042      -0.48968768      -0.89147359       0.42332190
H       24.70037945      18.00326555      39.53228266      -0.19834636      -0.08708992       0.27654719      -0.04292767      -0.64273912      -1.41082668
H       23.31065637      17.76849028      38.42318702       0.02929229      -0.36758351       0.33531983       1.45556450      -0.18974292      -0.29968393
H       24.99869500      17.93727164      37.73201701      -0.03401244       0.06465319       0.06730739       0.86259580       0.44603282      -0.98555952
H       23.53203433      15.53256042      36.90623340       0.16764186       0.04821445       0.10146892       0.17783493      -1.00071359       0.46521926
H       24.36560253      12.84754116      37.84093880      -0.02658562       0.10324186      -0.17218329      -0.33428055      -0.08073181      -0.46389005
H       25.66453083      15.85448965      40.33816985      -0.14070834       0.09380998       0.07400568       1.51335239       1.03802800       2.06195593
C        7.57187291      34.85567303       7.14062477      -1.62176938      -0.64675837       1.13061811      -0.01913380       0.99064672      -1.04927874
N        7.79295769      34.02202584       5.98294308       0.33729058       0.03265192      -0.42253385       0.10310197      -1.75006664      -0.90175736
C        8.68723245      32.96178358       5.93371298       0.11196318       0.54361680      -0.13607678       0.18113512       1.26924300       0.40960908
C        8.32712936      32.10148919       4.98744453       1.54225076       0.20998267      -1.64668526      -2.33889508      -0.30072632      -0.52362812
N        7.06051894      32.52428131       4.49324802      -1.85334435       0.27426562       0.22057595       1.23865569       1.44249964       0.07325232
C        6.84728743      33.75831347       5.05070057       0.67007087      -0.68136419      -1.37951842       0.55692708      -0.99980241       0.43241948
H        7.08301530      34.29442569       7.87621029       0.09625124      -0.04999216       0.02429289      -0.70013791      -0.99497294       1.40756893
H        6.91083239      35.67892031       6.87255706       0.28765229      -0.02194683      -0.21941157       0.05457687       0.12571423      -0.23918910
H        8.50556650      35.23296222       7.50295536       0.09201021       0.31392347      -0.12457370       0.65831727       0.18543203       0.27375954
H        9.54454914      32.87261073       6.52315333      -0.13892313      -0.16184281      -0.01439163       1.22277415       0.30164239       1.04236352
H        8.79953928      31.18160088       4.76986690       0.10540716       0.07798949       0.32804627       0.24610239      -0.78784502      -0.53084141
H        6.28619078      34.60989844       4.77082308      -0.35462805      -0.13500181      -0.00415926      -1.20231783       0.10656592      -0.98249412
C        0.06536413     -11.51235184     -10.72606194       0.06832542       1.00123795       0.24223340       1.02190566      -0.14244470       0.75401461
N        0.50125508     -11.30773025      -9.34718527      -0.96450973       0.34866728      -1.34268409      -0.61219436      -0.01357081       0.26585078