640
Lattice="19.152215 0.0 0.0 0.0 19.152215 0.0 0.0 0.0 19.152215" Properties=species:S:1:pos:R:3:forces:R:3 energy=-80138.71824764312 pbc="T T T"
C       -4.61375427       4.12917846       6.44077084       1.78968890       1.66433437       0.43958683
C       -4.18193164       2.66903240       6.53446500      -0.09930393      -1.01767927      -0.76952543
O       -4.52601502       1.94297861       7.46493213      -0.28087507       0.30945666       0.42777605
O       -3.45699748       2.06345862       5.53709991      -0.75695574       1.31101737       0.50685484
H       -3.92998210       4.75329885       5.79624256      -0.55646773      -0.75705681       0.24817564
H       -4.55367024       4.65497485       7.43778578      -0.01560523      -0.90260461      -0.44904825
H       -5.62412581       4.33695985       6.10957302      -0.50165417      -0.60087047      -0.34031320
C        1.49134153      13.01898208      -3.21831080       0.87663969       0.23099975       2.51849575
C        2.31239218      12.28401014      -2.21477765       1.33527419      -1.56671535      -0.25522804
O        2.77952331      11.07508488      -2.62154741      -1.05259115       0.32703432      -1.15615844
O        2.63690023      12.66845401      -1.10835665      -0.32277101       1.35125011       1.38928206
H        1.66605576      14.05390055      -3.00446794      -0.70395951       0.93652948       0.25592140
H        0.51905370      12.62841065      -3.08548187      -1.61262869       0.04793160      -0.09358179
H        1.86775893      12.84013185      -4.14854882       0.76918391      -0.81465684      -2.89753060
C        3.36298442      16.18029724      -0.62212974      -0.76992139      -0.67750156       0.47082292
C        3.76456250      17.11490613       0.46676664       0.45733233       0.46875112       0.27590227
O        3.32557946      -0.86471127       0.44169391      -0.16781981       0.42353132       0.11221667
O        4.49757922      16.68297952       1.44014922       0.63274219      -0.02449453       0.41049332
H        3.07190198      15.22098305      -0.20095763      -0.66169568      -0.25665325       0.41271683
H        4.05188009      15.80848790      -1.34621867       1.26825015       0.45420979      -0.78201239
H        2.53121889      16.66826838      -1.09578237      -0.66202324      -0.21426011      -0.57559690
C        7.13908430      19.50370877      12.63614659      -0.46591756      -0.17414152      -0.80100057
C      -10.54932782      19.31935804      12.58562248      -2.49789065      -1.29221726       0.05781322
O       -9.81596749      20.25769453      -6.64591445       2.77886785       1.69053427      -0.16817901
O      -10.25223535      18.00325700      12.63923738       0.83184923       0.56064485       0.06089946
H        6.69084943      18.73305469      12.02797073      -0.56651711      -0.27855801      -0.41254620
H        6.81429390      20.48964394      -6.80329993       0.00930900       0.49389587      -0.33729425
H        6.78920840      19.34133137      13.61902731      -0.50114967      -0.37926904       1.55277665
C        2.91667296       4.04651180       2.66880489      -1.62443196      -1.38869913       1.41074130
C        1.89170385       3.11988101       1.94392130       1.58467191       0.69810491       1.04277292
O        1.37746556       2.24329957       2.61933765      -1.04717960      -1.40738554       1.49017278
O        1.71880834       3.20689082       0.68750146      -0.11105183       0.59653285      -1.90383686
H        2.56335196       4.07673053       3.75402301       0.50891743       0.54939575      -1.40773412
H        3.12107790       4.98802050       2.22403312      -0.00061901       1.16640432      -0.35997435
H        3.84029397       3.49697338       2.73293950       0.70955208      -0.45723622      -0.20483023
C       -6.51528662      12.56548510      -4.00745677      -0.57602069      -0.16424034      -1.06958820
C       -5.72955505      12.23447823      -5.32860898      -1.30399617       0.37168706       1.04294830
O       -4.92450970      11.32563157      -5.35288538       1.25966457      -0.83275448      -0.11791349
O       -6.05152234      12.96659037      -6.39113844      -0.22265825       0.84162450      -0.17427427
H       -5.76793213      12.70440134      -3.19419980      -0.55256291       0.05988929      -0.35441711
H       -7.16834989      11.67201857      -3.75139937       0.84496652       0.80281000      -0.22723276
H       -7.21253428      13.43910157      -4.16367486       0.87658131      -0.63649601       0.37358901
C        3.32937192      19.56334074      11.84876188      -1.81880268      -1.11819542      -2.58492784
C        2.32526024      20.55607121      11.22313432       0.58079190      -1.29681866       0.05080173
O        2.05676453      20.21483669      10.00868377      -0.46891294      -0.23331240      -1.78373118
O        1.76016534      21.45077062      11.83532551      -0.37986312       1.06680680       1.12852753
H        3.79698945       0.89943173      12.62282621       1.44299152       0.75454986       2.16150541
H        4.00879512      19.14365776      11.05513450      -0.43541506       0.43751995       0.87740952
H        2.63130805      18.74837171      12.17029393       0.77605838       0.27497117       0.14021671
C       -1.32032760       7.72251244      -1.72736366       0.20886967       0.13364863       1.71647964
C       -0.99415358       9.11154807      -1.14561884       0.57773848      -0.30602154      -1.32780924
O       -0.17773789       9.00436287      -0.04561269      -1.01372191       1.12202298      -0.53720186
O       -1.30947352      10.18011947      -1.72149411       0.47126228      -1.35207445       1.07683910
H       -2.38108633       7.52056745      -1.48664146       0.07167142       0.06852896      -0.09836652
H       -0.69981268       6.93082555      -1.19166581      -0.54034013       0.82107460      -1.01863417
H       -1.20070036       7.80307186      -2.80246745       0.09570324      -0.42518875      -0.26142249
C        6.87632683       8.58036680       2.86766565       0.55676235       1.38893231       0.31723954
C        7.16794407       8.38324677       4.36228290       1.10827109       1.38374914      -1.34492783
O        7.55291013       9.49097913       4.89242377       0.00053931      -0.15464716       0.90503081
O        7.08599569       7.26438414       4.92706358      -0.38197394      -0.40475516       0.25807204
H        6.85052763       7.66094794       2.35261529      -0.01333752      -1.28779522      -0.83984091
H        7.58287800       9.33674341       2.33901065      -1.12373632      -1.30133632       0.91793330
H        5.85983437       8.98253852       2.89105757      -0.17938628       0.26415805      -0.47804715
C       -9.38151974      19.44921866      -3.14521391      -0.58988015       0.81714940       1.88509209
C       -8.13147832      20.27057159      -2.78840410      -1.28954083      -0.66026745      -0.05428089
O       -7.04149679      19.76251500      -2.99744581       1.32369030      -0.28642068       0.02190428
O       -8.27957565       2.33980498      -2.26990447       0.06857451       0.03971551      -0.32852760
H       10.02569723      -0.32059385      -3.96040058       0.38105105      -0.91755469      -1.10587338
H      -10.25469758      20.04494425      -3.42247540      -0.06113172       0.22908631       0.13467921
H       -9.69952566      -0.38488689      -2.30000012       0.35837473       0.80184879      -0.62429311
C        6.79422550       3.68474120       3.54539005       0.06767306       1.99427167      -0.64664054
C        7.80231347       2.72531727       4.05643816      -0.28119210      -0.99351890       0.34497558
O      -10.21290135       2.71845458       3.30355451      -0.16894104       0.14316877       0.19889277
O        7.57113619       1.94012463       4.98176085       0.56523816       0.27818948      -0.22664567
H      -13.36358783       3.68972901       4.00354726       0.74378096       0.01969733       0.48497160
H        6.60572333       3.45091245       2.51001798      -0.05529440      -0.45621654      -0.89373361
H        7.23072378       4.73161240       3.43225507      -0.56590711      -0.89313636       0.64334393
C        5.63395691      18.59742431      -2.29818350       2.66434424      -0.29171358       0.43994920
C        6.22852991      17.33266934      -2.93432031       0.00211802       0.59376200       0.79161585
O        7.36155041      16.92822093      -2.40249242       0.54260298      -0.13606148      -0.55620716
O        5.61780510      16.74196878      -3.83253346      -0.20713663      -0.31718630      -0.65470235
H        5.44616632      19.34381711      -3.03106103      -0.94857097       0.53005337      -0.93178645
H        6.36897046      19.09965014      -1.63700280      -0.10722476      -0.46816264      -0.19049584
H        4.83648380      18.32315964      -1.65876401      -1.35992047      -0.05430504       0.38277848
C        5.15405018       9.26265259      -4.67677233      -1.17543886      -0.05650528       1.99208862
C        5.03186865       9.72059889      -6.08172297      -0.45738127      -0.39386791      -0.39506809
O        5.96854804      10.50685589      -6.50370654       0.62144924       0.65178649       0.00040509
O        4.08516965       9.32434686      -6.80811584      -0.10932333       0.05097402       0.23578405
H        5.58628885       9.98974779      -3.96062574       0.08445406      -0.06814577      -0.54747563
H        5.72342689       8.34506975      -4.56720471       0.31114446      -0.30032453      -0.22295508
H        4.14527142       9.01828040      -4.26239671       0.46636632       0.14332393      -0.36889848
C       -0.77512408      15.20793193      -6.83727441       0.30278714      -1.35678579      -0.97421248
C       -0.53376337      16.58977702      -6.37335842       0.65314262      -0.57791077       0.37892705
O       -1.45119165      17.26358785      -5.90795514       0.23748707       0.96085398      -0.12029778
O        0.77135891      16.96525954      -6.39060985      -1.28415400       1.02301839      -0.03029519
H       -1.82190086      14.87587932      -6.82343102       0.00502208       0.45695591      -0.40681522
H       -0.29713487      14.52861958      -6.14455641       0.33904079      -0.25641829       0.77048411
H       -0.22426158      14.92823283      -7.77638943      -0.87263641       0.44632407       0.39052911
C       12.29820637      14.41518830       7.84428525      -0.51067112      -2.09594630       0.35544722
C       -5.85645972      15.43214797       8.17506520       0.41450353       0.22933633       0.53260597
O       -5.90391214      16.08096394       9.20948469       0.08482000       0.58716929       0.53407318
O       -4.82967486      15.51055138       7.30367277      -1.01936138      -1.00888599      -0.55152230
H       11.26771126      14.73189919       8.03774075       0.11800595      -0.01736872       0.18869813
H       12.51000973      13.45695860       8.45349288      -0.36855130       1.35588969      -0.55441222
H       12.40084917      14.10222772       6.81992625      -0.13349783      -0.15241234      -0.73822591
C       -1.84997696       1.35704604      -3.84182352       2.79857291       1.62422837      -0.97706980
C       -2.52039282       2.63766508      -4.38664700      -1.71706117      -3.30931862      -0.81790418
O       -3.62911226       2.43962803      -4.95566137       1.30724978       1.49661058       0.47499993
O       -1.90802650       3.78543185      -4.14736448       0.27523189      -0.44671123       0.15326903
H       -1.27406846       0.72623728      -4.64344476      -1.27322752       1.13788413       1.19634573
H       -2.60699208       0.79492668      -3.36431847      -0.77469002      -0.92257800       0.48277348
H       -1.07893873       1.71620500      -3.11330382      -0.52346000      -0.73530763      -0.31124536
C       10.97932099      11.19542105      -1.00418921      -1.19475423       0.23809410       0.94592145
C        9.56630434      10.75378540      -0.53256566       0.88593070      -1.84126213       1.01634276
O        8.59673229      10.94574726      -1.29566690      -1.23594729       0.59060176      -0.77126480
O        9.52167439      10.03046566       0.55446273       0.02803696       0.92603334      -0.61934090
H       11.57414017      11.07636011      -0.08795907       0.57767604       0.33084414      -0.56314266
H       -8.22778615      12.22557963      -1.40976844       0.34324689      -0.42952484       0.21673025
H       11.23741887      10.47868681      -1.78427155       0.41011206      -0.03049299      -0.13293114
C       -4.22937960      10.09767132      -0.02952541       1.01441135       0.48801904      -1.22989213
C       -4.33368090       8.72719349       0.61260101       0.91239531       0.56734090       0.28575705
O       -4.44854919       8.65563686       1.86043111      -0.31465021       0.87245450       2.10803137
O       -4.28108456       7.69621176      -0.07945011      -0.03176180      -1.44752041      -2.22143777
H       -3.48553878      10.25423078      -0.88079601      -0.69594849      -0.69365981       1.08301536
H       -4.06109213      10.89384792       0.67915344       0.03860622       0.27147993       0.50009155
H       -5.17826955      10.28720527      -0.48023183      -1.16446250       0.30248712      -0.50961666
C       10.27060125      11.69588355      10.68321708      -0.39630044       0.12036316       0.49015045
C       10.07460597      11.58992321       9.17645839      -0.82478783      -0.44304948       0.73374451
O       10.58905505      10.61849251       8.55299991       1.06358178      -0.74627590      -0.06018320
O        9.28557325      12.39300558       8.66229308      -1.56484991       2.33441295      -1.24149236
H       11.25394100      11.27147577      10.79588814       0.39371627      -0.06201149       1.19589200
H        9.47846003      11.16951815      11.26779755       0.61967657      -0.51714261      -0.62489833
H       10.14632497      12.68941192      11.15688676       0.60113420       0.10517558      -0.85272401
C       -3.67910447       7.42906191       9.59587641       2.18152019       0.83790333      -1.58833062
C       -3.61758078       5.96229866       9.94361911       1.86132148       0.56470518       0.43134654
O       -2.44517705       5.40947786       9.93738026       0.66638071      -0.22303590       0.04331750
O       -4.64541337       5.32967039      10.17833750      -2.06409725      -0.71747544       0.33890574
H       -4.15709680       8.12318865      10.26362208      -1.10240500      -0.21322105       0.30434039
H       -4.06117646       7.40704924       8.56372972      -0.67746733       0.54177772       0.16977740
H       -2.68498243       7.97041848       9.42026994      -0.63636646      -1.28357110       0.36839247
C        2.34524054      13.40491985       8.45755812      -0.43863351      -0.00491155       0.72779767
C        1.12859742      13.10910387       9.29901650       0.54808157      -0.64070090      -0.66875154
O        0.30492340      13.96212042       9.60358457      -0.76874934       0.51129301       0.22026607
O        1.06516862      11.84808825       9.73812796      -0.47185015       0.31777367      -0.04513710
H        2.67930495      12.53243954       7.89404855       0.51436887       0.12187344       0.43918481
H        3.00625481      13.84887220       9.21216233       0.84503912      -0.57839107      -0.08471579
H        2.18617479      14.23612735       7.80178956      -0.51829516       0.53735189      -0.74713792
C        9.01273853      15.00834622       5.90308702       0.91934572       0.74628910      -2.20231685
C        7.97651695      16.04872313       5.55973584      -1.55403210       0.67525086      -0.54144700
O        7.21915145      15.96621592       4.55875571       0.94300909      -0.14263460       0.97786385
O        7.84455417      17.13688654       6.33820216       0.77531945      -0.97195346      -0.21419252
H        9.96523519      15.49774380       6.04166396       0.46128541       0.55992940       0.97823171
H        9.27989931      14.53057739       4.95756777      -0.48451327      -0.55547277      -0.33227666
H        8.87134875      14.23398831       6.61906297      -0.54170726      -0.46957246       1.05054777
C       -3.38343484       8.00106090       4.88130324      -2.24863274      -0.57471137       0.92129381
C       -2.33740942       8.94185844       5.39990380       0.68711100      -0.46247247       1.05986902
O       -2.36016236       9.48921549       6.53986118       0.21123257      -0.59208289      -2.15442313
O       -1.34287307       8.98491313       4.48383307       0.57763662       1.30729669       0.55662055
H       -4.22657208       7.92151083       5.66985041       1.06674170       0.22732587      -1.34887328
H       -3.07341327       6.94749556       4.70650613       0.46639919       0.57291700       0.21971812
H       -3.76304019       8.30895602       3.86780897       0.07551887       0.02956542       0.70447038
C       -0.68664297      17.15535088       5.01990742       0.66614917       1.69700154       0.30725488
C       -1.91593516      17.68588241       4.29201071      -1.02465858      -0.05580750       0.22338325
O       -2.94432867      17.01546351       4.01357362       1.98417001       1.04296374       0.32813636
O       -1.83419868      19.06193077       4.13352235       0.46913728      -1.76946622       0.20247383
H        0.31579068      17.44626099       4.56310544      -1.28187219      -0.76341671       0.02537894
H       -0.81742125      16.13897252       5.36195265       0.22758201      -0.60929347      -0.44914699
H       -0.63827397      17.76107339       5.96211798      -0.18352305      -0.22423879      -0.47518669
C        3.17691899       8.10418234       4.22513896      -0.01134019       0.53248851       0.18104612
C        3.46565223       7.34084558       5.46849327       1.21123644       1.62812240       1.07652729
O        3.46832655       6.03862489       5.21346855       0.41179079      -1.28017671       1.39637357
O        3.75117243       7.83686920       6.58047331      -0.57886039      -0.60584220      -1.02407019
H        3.85240389       7.79501698       3.43532049       0.26998983      -0.29301427      -0.30777395
H        3.29541740       9.19073339       4.36682357      -0.50198106      -0.40999083       0.08143422
H        2.18283051       7.76152955       3.94838904      -0.48826865       0.51782296      -0.46637725
C       -5.28413302      13.44209397       4.20339195      -0.74622205       0.54868327       0.44452893
C       -5.86958005      13.82601314       2.83605986       3.03601152      -0.34699276      -0.37164656
O       -7.13556417      14.08966943       2.94963182      -1.72968314       0.57667930      -0.81672638
O       -5.15306741      13.91464397       1.79585131      -1.50277951      -0.20177584       1.68225890
H       -4.60889450      12.60170538       4.10317819       0.38252797      -0.12202246       0.12152169
H       -6.02828765      13.28161040       5.01629349      -0.11045455      -0.58335428      -0.87908631
H       -4.81965887      14.32571594       4.65064676       0.86598624       0.21606727      -0.42163974
C       12.07390862       8.66377054      -8.45760219      -0.50293650      -0.64420744      -2.14988750
C       11.49253901       8.27395888      -7.12275737       1.28595980       1.38480445      -1.67501801
O       -7.44515828       7.20304256      -6.59631794      -0.21899464      -1.17278554       0.80103760
O       10.83232981       9.29623455      -6.56151886      -0.35304454      -0.30106959       0.29068673
H       11.51665940       9.42499981      -9.02484065      -0.44233837       0.03866677       0.36663706
H       12.05849596       7.80316057      -9.21479503       0.53195723       0.70937613       1.32828143
H       13.06110932       9.14036028      -8.40790849       0.20052320      -0.50827453       0.36115851
C       -0.09261195      19.04512848       0.65365444      -1.22296330       0.76455728      -0.70694210
C       -0.61113126      18.47075382      -0.62206394       1.63589950      -2.59277044      -0.05593332
O       -1.83609787      18.92450399      -0.92550066       0.41487225       1.49105111       0.79502601
O        0.00120220      17.54733437      -1.21252954      -1.24017303       1.05452631      -0.02028052
H       -0.84981031      18.69864408       1.37727440       0.43427977       0.58448927       0.40459776
H       -0.12515576      20.11934092       0.47737267      -0.48203134       0.49775634       0.84228761
H        0.92689274      18.83807949       0.89944792       0.63279459      -0.75940602       0.15104514
C        2.71457443      15.74643075       4.24259680      -0.01128719      -1.64626763      -0.78470547
C        3.70484507      15.48992409       5.32041581       0.93220719      -0.95032457       0.04125923
O        4.54077174      14.57141822       5.18150472      -0.41619480       0.46810871       0.73514127
O        3.65589272      16.36635546       6.33392739       0.30979102      -0.46828671       0.26770517
H        2.27413434      16.70750513       4.41457578      -0.63304050       0.53198072      -0.38214105
H        1.96542585      14.88965569       4.14877665       0.65614496       1.11398313       0.33820465
H        3.34782699      15.67104409       3.32677441      -0.71714912       0.47687919       0.14074174
C        2.28108035       6.57794560      -2.66812823       0.36781664      -0.59143044      -0.03928599
C        2.52888099       5.53481872      -1.52623229      -1.17511723       0.33427771       1.11900225
O        1.59028161       5.33920916      -0.51392851       0.78169182       0.48232949      -1.70036538
O        3.56028887       4.88302503      -1.51748430       0.92409024      -0.41517207      -0.40828828
H        1.80961543       6.02033063      -3.52179890       0.00225619       0.43254075       0.59181245
H        3.29548661       6.87783490      -3.08526766      -1.06268724      -0.17783500       0.70431450
H        1.67126312       7.46118148      -2.37040181       0.35267153      -0.65724228      -0.13400018
C       11.19865939       6.39965538       6.84857771       0.86182767       0.54767228       1.86379751
C       10.44606001       5.11773435       7.04016352      -0.69604950       0.64936194       1.31680933
O        9.96863437       4.78541044       8.16181630       0.80508981       0.26977955      -1.57731891
O       10.22496971       4.42709339       5.94754263      -1.13791549      -2.22015482       1.20738544
H       11.00840138       7.01811294       7.74397260       0.13386393      -0.01891468      -0.25212860
H       10.94805230       6.95056220       5.98114018      -0.87421831       0.52507080      -1.19066542
H       12.29225339       6.32071340       6.74116588      -0.04332591      -0.53456012       0.30712641
C        5.59302078       3.19256930      -4.33007743      -2.51588658      -0.79628970      -1.90780654
C        5.03069886       4.09423896      -5.45143526      -1.08878130       2.01964936      -1.76512345
O        5.70546771       4.57790421      -6.41051753      -0.02343705      -1.15861782       1.78078438
O        3.66218288       4.33198280      -5.47823801       2.55879935      -2.18482103       2.49249693
H        6.62980070       2.99196330      -4.51954536       0.61475830      -0.15955817       0.00746082
H        4.93551640       2.28752338      -4.56709053       1.07297789       0.33581370       0.44250389
H        5.33922156       3.39481713      -3.29858406      -0.04853990       0.72857580       0.40385015
C        5.65658667       0.66718745       6.90595515      -1.18610865       0.64003615      -0.83337977
N        5.01266258       0.22786183       5.64095095       1.06782108      -0.52295180      -0.17516592
C        3.85912140       0.88123179       5.30219092       0.02609059       1.59366137       0.14793078
C        3.44842840       0.39594172       4.10920217      -1.22453424      -0.06692121      -1.34836552
N        4.37616579      -0.54650690       3.72917435      -0.92564563      -1.00396212      -2.41740477
C        5.34556064      -0.67460089       4.62327366       0.83463064      -1.06504354       2.36714158
H        6.49203607       0.08532632       7.15605954       1.94260756      -0.47457875      -0.35468011
H        4.99096118       0.34433316       7.69251779      -0.83078629       0.48610315       0.50187764
H        5.78849084       1.79027073       6.82369741       0.15031336      -1.54026196       0.35697854
H        3.56409516       1.84819121       5.78210866       0.35654780      -1.31873628      -0.32542451
H        2.54627634       0.65753603       3.51857606       0.81135963      -0.07129084       0.20745295
H        4.32351246      -1.13777731       2.80800398       0.16668569       0.56528301       1.18361608
H        6.02137226      17.50009751       4.68357851      -0.79528983       2.32096509      -0.13432194
C        6.48548208       7.25998167      -0.33593346      -1.63670069      -1.86017022      -2.05111448
N        5.36617476       8.18215235      -0.33458424      -1.89342940      -1.25590327       1.11750611
C        4.08165658       7.78415630       0.14479455       1.73440705      -1.81932847      -0.00281668
C        3.20013899       8.75863242      -0.16447807       0.17906187       2.45127357       0.90838389
N        4.00853782       9.86568366      -0.68587394      -3.50608061      -0.64924009      -0.23727098
C        5.19337876       9.40014083      -0.88609853       2.84989342       0.19293254       0.52730603
H        6.51115076       6.84475820      -1.38142805       0.46040028       0.29845186       0.65247889
H        6.21578415       6.34587880       0.25011785       0.45239518       0.88533961       0.06267972
H        7.39410919       7.73528772      -0.10025472       1.32168233       0.59216829       0.57290820
H        4.05229226       6.74957860       0.56406990      -0.44099883       1.10936759      -0.32989865
H        2.14028092       8.92165007       0.19139641       1.35486619      -0.30841761      -0.80926387
H        3.22216952      10.64428719      -1.80719777       0.55324108       0.00406854       0.42380543
H        6.09292345       9.95193356      -1.20285217      -0.52103846      -0.06682328      -0.19692558
C       -0.26585192      24.68943220       6.87715189       0.25046724       0.78417173      -1.43041924
N        0.29391746      23.39538646       7.21245968       0.12378570       0.05869361       0.29427505
C        1.14649575      22.65126067       6.36370731      -0.94168488      -0.36309950       0.52929382
C        1.47702907      21.56268653       7.12424401       0.41062080       0.14839326       0.60749299
N        0.94268115      21.68328896       8.39228068       0.34608824      -1.01417000      -0.29894827
C        0.22361739      22.77073801       8.44788538      -0.91630053       1.10004019      -0.18685622
H       -0.43957531      25.29708079       7.76957689      -0.08750358      -0.15322707      -0.00377515
H       -1.19985884      24.59494641       6.27175551       0.43224030       0.01163363       0.48925700
H        0.50156154       6.04578898       6.22337407      -0.76882709      -0.17689119       0.63491615
H        1.34567412      22.80675564       5.28608256      -0.29801557       0.32208749       0.93364368
H        2.18260214      20.78336037       6.93263541      -0.08512209      -0.45338706      -0.11720169
H        1.36583295      20.96589673       9.36291191       0.56856713      -0.46672076       0.29336923
H       -0.37837476      23.04627984       9.36112340       0.79120375       0.22169903      -1.47806979
C       -2.40950007      13.54200083      -3.57692914       0.56445705      -1.65246329       1.03257478
N       -2.82581191      14.57290661      -2.67319951      -0.06504892      -0.11238400       0.33125881
C       -3.58336560      14.40924825      -1.51831578      -0.44410179       0.44547101       0.56131859
C       -3.67605156      15.68943184      -0.94849216       0.12672940      -0.54291676      -2.03903789
N       -3.03665181      16.57359919      -1.84393786      -0.75839883       1.84087925       2.84225756
C       -2.48007906      15.88750210      -2.77722839      -1.04533796      -1.91340990       0.03809972
H       -2.09252640      12.68265699      -2.95226929      -0.11379598       0.05628044      -0.35858685
H       -1.56460596      13.78465612      -4.19279451       0.57866188       0.69625712      -0.16715777
H       -3.17751777      13.20315374      -4.23572246      -0.97596571      -0.22274546      -0.50170211
H       -4.08152049      13.46005798      -1.23587995       0.72939906       0.58651419      -0.16548940
H       -4.29306020      16.03299045      -0.12493575       0.25635464      -0.07016692       0.05415659
H       -2.37678028      18.25117853      -1.36034150      -0.55445040      -1.58681316      -1.06227073
H       -2.02739195      16.21796964      -3.64891491       1.16228490       0.89440488      -1.36402351
C      -10.24006284       5.20189034      -2.22272749       0.32512630      -0.15934734      -1.79040211
N      -10.16283340       6.36843348      -3.18672427      -1.73330199      -1.62525249      -0.14201218
C      -11.21795803       6.66122781      -4.10178041       0.03518017       0.61355689      -0.16535609
C      -10.76181194       7.77189209      -4.79549932       0.92283562       0.62962868       0.39826134
N       -9.43281958       8.14194589      -4.41465273      -1.93225535      -1.88870844       1.07169117
C       -9.16357452       7.22760553      -3.44616804       1.78862708       1.28494568       0.04475247
H       -9.29452032       4.67612894      -2.09765580       0.39208301       0.17472820      -0.38442822
H      -10.94665164       4.47165761      -2.65133800       0.11896907       0.28351453       0.15664636