640
Lattice="18.700606 0.0 0.0 0.0 18.700606 0.0 0.0 0.0 18.700606" Properties=species:S:1:pos:R:3:forces:R:3 energy=-80127.84140931333 pbc="T T T"
C        9.64143077       1.37350600      10.47580150       0.64006448      -0.06982739      -0.56966123
C        8.76479139       2.19911802       9.53936486       1.83197392       0.27342510       2.22931205
O        7.94789676       2.97270654      10.00961457      -1.50053065       1.23594155      -0.15454257
O        9.06861684       2.15622259       8.27196250       0.39956164      -1.54825313      -1.80784542
H        9.43825386       0.31101102      10.17793924       0.66622964       0.69455283       0.83837577
H        9.36663722       1.57948888      11.53603700       0.10000444      -0.37241337      -0.76239177
H       10.75034951       1.64923253      10.30849451      -1.61224897      -0.62426232       0.13153039
C       18.76562147      10.20887697       9.02102889       0.55869194       0.53892994       1.78549829
C       19.95194885       9.70268235       8.31942146      -2.21191828      -2.36972189      -1.98214301
O       19.56378513       9.37837378       7.04253057       1.48489586       0.49910011       0.45274268
O       20.95124406       9.26866954       8.85724263       1.68511818       0.32753097       0.47629750
H       19.17222829      10.44697295      10.02466727      -0.85311785       0.02177782      -0.04262359
H       17.97977001       9.43326976       9.05964181       0.37872006       0.13483406       0.00859048
H       18.39342268      11.11458849       8.57281947      -0.27332243       0.29599502      -0.23951042
C       19.72003855       9.68851526       2.04656237       1.08095085       0.80131091      -0.28865672
C       18.71185987       8.70681680       1.60877111      -1.47300965      -0.51863424      -3.12680115
O       18.15851927       8.96178386       0.43416064       0.54559777      -0.80460341       2.43041565
O       18.55718109       7.62099083       2.29388129       0.00911231       0.53391168      -0.40947388
H       19.68423876      10.69359035       1.58379642      -0.50346556      -0.34968459       0.27981944
H       20.68888082       9.30618462       1.73268731       0.41040763      -0.34513749      -0.20329800
H       19.80037985       9.70306508       3.10814218       0.01534944       0.37014099       1.18212461
C        9.56402505      -4.09636028       3.20337825      -1.15017356      -2.80807760      -0.25874496
C        8.77899416      -3.03801928       3.88815334       0.35770528       0.79250976       0.06602438
O        7.87903066      -3.40031737       4.71432226      -0.46385730       0.05267099       0.11482752
O        9.14715434      -1.84183824       3.66128788      -0.15121959       0.43923826       0.10522249
H        9.08052761      -4.53271046       2.27684569       0.14118054       0.64470258       0.76794688
H        9.59664650      -4.97637590       3.91407391       0.44440708       0.69645419      -0.72644644
H       10.52836788      -3.77062641       2.90769908       1.17558424       0.34508033      -0.19572633
C       19.81327577      12.34467384      15.63968134      -0.27997709       1.36956542      -1.41484800
C       18.61373149      11.52684158      15.20902491       0.35100948       1.57701925      -2.30470277
O       18.05338757      -6.87546320      14.09892002       0.24118808      -0.65651296       1.00985534
O       18.29346674      10.61692971      16.02443720      -0.64570307      -1.60577711       0.96742922
H       20.59449044      11.74125958      16.01777010       0.79390295      -0.74840596       1.03197559
H       19.44555319      13.08140993      16.35514547       0.17393633       0.01556928       0.43770051
H       20.27451294      12.91880318      14.80741643      -0.51968738      -0.22460331       0.17324174
C       17.33532059       4.25786044      -2.70786435       1.13485160       0.66353755      -2.36471162
C       17.90277520       3.81576587      -1.39646386      -0.95303526      -1.04140360       0.12980491
O       18.49629302       4.72426868      -0.76811829       0.89068854       0.29980048       1.06847698
O       17.70519472       2.59038003      17.64472344       0.24466000       0.23528073       0.43110955
H       18.18197925       4.94217258      -3.07807567      -1.56966213      -0.33891191      -0.00137426
H       16.34552121       4.77585161      -2.69972730       0.85426702      -0.20653049       0.14373369
H       17.30161597       3.43088608      -3.46199747      -0.25616582       0.43885118       0.59368320
C        4.31585904      -6.64022147      14.27843190       1.55776923      -0.17530245      -0.76308552
C        5.25151767      -5.43541123      13.95232266      -1.27421628      -0.50482620      -1.37546507
O        6.43110626      -5.44435336      14.48794280       0.36165811       0.26345668       0.16465888
O        4.83333391      -4.60002200      13.10953653       0.34369201      -0.18791707       0.70178898
H        4.83338498      -7.63468338      14.28907465      -0.35487201       0.76554185      -0.40446621
H        3.47560515      -6.57454019      13.61157074      -0.32272597      -0.35704830      -0.74045919
H        3.88442535      -6.56214902      15.23177027      -0.43638543       0.41814035       1.87777279
C       15.81178289       6.19383332       8.28865387      -0.48416844      -1.79042381      -0.50990113
C       17.09681561       5.34842248       8.42965621      -0.96563234       0.21936279       0.20016819
O       17.03969925       4.11741252       8.65788896       0.39367606       0.71347310      -0.20779017
O       18.16523462       6.10989716       8.36605686       0.91474193      -0.78593314       0.27148550
H       15.60514940       6.63072053       9.25620250      -0.02887015       0.69970253       0.25454537
H       14.97518888       5.49755452       8.09287914       0.14794556       0.06377707       0.10652251
H       15.81046426       6.89327400       7.45318683       0.36261427       0.47440784       0.27524978
C        6.09654141      10.34968706       7.99442767      -1.66477628      -0.60105496       0.75904619
C        6.80095470       9.14211417       8.57807108       3.07370514       3.15048182      -0.56554074
O        6.28170537       8.08494173       8.63524357      -2.13596318      -3.67483289       0.43648724
O        8.13414401       9.32917252       8.90512911      -1.02372556       0.05180804       0.44414585
H        6.15181432      10.33450136       6.92691132       0.06277545      -0.42106392      -1.15693627
H        6.50778534      11.29605888       8.24856263       0.48894322       0.75940297       0.62469053
H        4.98011168      10.30750417       8.26035732       1.44653337       0.03445943      -0.26426680
C       11.84266785      11.11091102       4.39962160       0.33065683      -1.46804321      -0.25175184
C       10.75884642      10.91790107       3.33801318      -0.46402861      -0.32557330       1.72746186
O       10.88516472      11.34554284       2.17790314       1.28704036       0.89093871      -1.84099129
O        9.65596563      10.46141025       3.76219795      -0.47433157      -0.69987790       0.44521206
H       11.70084379      10.40937822       5.25033798       0.19783872       0.36614822      -0.51489743
H       11.70188160      12.08489394       4.76853081      -0.53972138       1.66213943       0.84945608
H       12.88822651      11.15197396       4.07488517      -0.18405825      -0.46485787      -0.31026776
C       19.61307158       3.84983474       5.63355654       1.20849278       1.70676828      -0.40559925
C       19.51479258       3.09610249       4.29628353       2.09126101       0.79008631       1.22435681
O       20.61362804       2.53490034       3.90148675      -1.31138714       0.22345795      -0.13361003
O       18.46663972       3.26778634       3.65918739      -1.66044742      -0.52496193      -1.48163729
H       19.61456891       4.98072494       5.46814531      -0.42901275      -1.18011828      -0.20437275
H       20.62378804       3.72608675       5.98941735       0.47929371      -0.41122231       0.58061366
H       18.92520861       3.69521792       6.44717439      -0.69473393      -0.51110550       0.16972768
C       21.53683999      -5.23761178       0.29027250       0.11213777      -0.64773948      -0.48738840
C        4.22497986      -4.71175857       0.27413268       0.57210204       1.03638790       0.71083841
O        5.12703646      -5.06561992       1.02281738       0.47998766      -1.23406052       0.46523608
O        4.36010853      -3.60845260      -0.44736894      -0.31359986       0.37949683      -1.40843603
H       21.11001839      -5.31260197      -0.72224393      -0.00307899       0.10266976       0.22430948
H       20.98254856      -4.45302462       0.84156978      -0.26556991      -0.80716072      -0.01400313
H       21.60924979      -6.25433325       0.72316070      -0.62946952       0.54757256       0.26715387
C       10.90841768       3.84591306      -0.39184222       0.19288306      -0.36705208       0.41920016
C       11.55038807       2.48636584      -0.68534167      -1.91593674       0.78012817      -0.16916249
O       12.79262731       2.63702686      -0.90970599       1.72565881      -1.23806744      -0.30015166
O       10.82895027       1.45424654      -0.79505819       0.87153782       0.46232915       0.25342909
H       11.66961989       4.64296305      -0.21415152      -0.73069633      -0.49785111      -0.21588813
H       10.22013020       3.72507415      19.13311582      -0.23622493       0.22108280       0.70994453
H       10.25762525       4.02415834      -1.23568109      -0.12761677       0.63710939      -0.57513299
C        4.43822666       8.43869838       1.53866448       0.74348811      -0.34790610      -0.60582179
C        5.91634103       7.97670151       1.09994920      -0.30731718       2.40526498       1.00871548
O        5.96177135       7.22897934       0.11553024      -0.02223742      -1.23576226      -1.30731963
O        6.93869852       8.49853732      20.40534176      -0.87782578      -0.41399103       0.00088149
H        4.28138341       9.49767327       1.70654674       0.79612813       0.72576281       0.58470083
H        4.19699072       7.90430044       2.48460807      -0.43765720       0.15976041      -0.85778432
H        3.77639603       8.35142226      19.34521186       0.11906096      -1.04747511       0.80997560
C       13.46969732      -0.92169045       1.73889812       0.55652335      -0.13436964      -0.69791853
C       14.78907127      -0.74982626       2.53797181      -2.04003566       0.62464629       0.16839318
O       14.55874731      -0.33545893       3.75781390       0.49899271      -0.29619081      -0.60959665
O       15.89349660      -0.95814487       1.99724650       0.73898222      -0.08844843       0.03222533
H       12.85300425      -0.01355148       1.77599960       0.11634846       0.01126846       0.20881152
H       12.85853456      -1.73846250       2.14557289       0.09693101       0.00601129       0.08568364
H       13.67070796      -1.12327280       0.66816879       0.00349020      -0.07250692       0.50640626
C       11.14954210       6.60558670       2.61667793       2.00452540      -0.83951455      -0.76212474
C       12.22242759       7.67382592       2.30054682      -0.48995735      -0.42247705       0.19920071
O       12.02607175       8.29276508       1.17037416       0.86538644       0.16726780       0.64227061
O       13.15900708       7.93558453       3.13636468      -1.04471666      -0.24197088      -1.25041902
H       10.26585550       7.17925874       2.73842494      -1.33350387       0.28690472       0.64225941
H       11.41840612       5.87619561       3.40677115      -0.36799000       0.80563749       0.07708218
H       11.00724246       5.98713311       1.71124067      -0.07943436       0.23896394       0.04802647
C       12.47979809       7.65908688       6.57319778       0.53043329      -0.53799166      -0.38985754
C       12.38416529       8.87716598       7.43894102      -0.38601954       0.97771351       1.22852304
O       11.23629498       9.11355610       7.98501301       1.80004522       0.03653181      -0.32796483
O       13.45832960       9.62590992       7.56354296      -1.10169239      -0.97215615      -0.43786291
H       11.89396194       6.82022536       6.97932050       0.29261573       0.04404388       0.18354389
H       13.53820548       7.34780623       6.36859569      -0.94825144       0.26972387       0.05457354
H       11.94517005       7.91935215       5.65260540       0.33585965      -0.12982221      -0.43461990
C       11.02270805      -3.27660849      16.03080724       1.32797318      -2.71668391       0.60581710
C       12.00309283      -3.83829513      -1.59493645      -0.60731088      -1.20704024      -0.44997552
O       13.14911497      -4.28919153      -1.97117848      -0.11549212       0.57769003       0.09538011
O       11.56363270      -4.04044421      -0.40817194       0.34464610       0.37530385      -0.03631405
H       10.56824610      16.29709354      -2.31424640      -0.62970100       1.73246361       0.19389424
H       10.20971724      -4.03713161      15.92199130       0.48909936       0.38767996       0.05849277
H       11.57758743      -3.25115509      15.09365503      -0.39777978       0.64255283      -0.24362857
C       15.86099543      -1.00757650      13.35917225       1.56978139       0.08580264       0.15968692
C       16.07947806      -1.13718998      11.89406198      -2.49656757       1.53622777      -2.08294731
O       15.28089496      -0.50154497      11.10942934       2.60673984      -1.94382805       1.28052537
O       16.99102092      -2.00903915      11.43939354      -0.20923453       0.53220606      -0.19963363
H       15.05887231      -0.35714769      13.61248855      -0.80036350       0.83103150      -0.13414255
H       16.79555473      -0.60892825      13.82775786      -0.63921854      -0.73042918      -0.13697927
H       15.57098822      -1.99054511      13.69174677       0.30975581      -0.64739291       0.71916720
C        2.75079641       4.36491385      13.02890702       1.52858262      -2.61695568       1.43649191
C        3.91684251       5.28190445      13.43948937      -0.90871274       1.58124881      -1.55634844
O        4.11090229       6.16373834      12.40792425      -0.32477352      -0.40172074       0.40408416
O        4.52553787       5.33171083      14.50962874      -0.37048551      -0.22705275       0.05938756
H        1.95098534       4.38203901      13.79138864       0.13269908       0.19726543      -0.10946259
H        3.15388207       3.23273222      13.09859481      -0.95896968       2.28018446      -0.49995837
H        2.36520763       4.63696660      12.04918709       0.02696939      -0.22818411      -0.13950945
C       20.45942169      -4.28226741       3.62664611      -0.46498644      -2.09193107      -1.39476423
C       19.52316628      -4.84236971       4.72033522       0.43085382       0.61459704      -0.24834616
O       19.09070418      -6.01325049       4.71947566       0.55717457       1.14790460      -0.15385586
O       19.24161034      -3.91822654       5.67061022      -0.19485524      -1.52639929      -0.54501645
H       21.13081903      -3.50375498       3.88801828       0.88282031       0.56611913       1.04177468
H       19.94032312      -3.80197872       2.78495302      -0.73648126      -0.19062706       0.16220490
H       20.98930344      -5.14571594       3.10390151      -0.39213894       0.94265945       0.89968079
C       13.37231785      -5.61327280       7.27534432       2.04933252       0.84197473      -1.83267228
C       14.35438500      -4.38311648       7.11011099      -0.93200535      -2.60006265      -1.29952702
O       15.23923662      -4.51206178       6.19120061      -0.06099697       0.29511174       0.12852142
O       14.18776298      -3.48048523       7.91706899       0.28968560       2.68145648       1.68207276
H       12.68864028      -5.76474382       6.45371340       0.16223440      -0.23132374      -0.77751281
H       12.77711630      -5.63423079       8.11037490      -1.38608404       0.45909563       2.55643059
H       14.11087830      -6.37936825       7.37807896       0.06594393      -1.37113660      -0.30739539
C       11.18948969       1.97135181       3.29331211       1.52194002      -1.43613541       0.75587902
C       10.39484688       3.02269986       3.97676207       0.25051653       0.19054415       1.00085113
O        9.17477262       3.07274603       3.78399632       0.40415432       0.68104762       0.45178386
O       11.05681823       3.76338306       4.92419833      -2.25519046      -0.15315132      -0.67935862
H       12.06365413       2.27373915       2.71463440       0.38893774       0.54283179       0.34370465
H       10.58933614       1.47817203       2.56563410      -0.90537182      -0.71514547      -0.51868892
H       11.56783243       1.19113301       4.06464890      -0.48172530       1.20240396      -1.23786131
C       17.49929351      -5.75145791       0.19399559      -0.05296801      -1.15425090      -1.18231503
C       17.41545489      -4.54186979      -0.74604484       0.17311309      -0.56531180       0.04196869
O       18.29961403      -3.64838937      -0.56742714      -0.32571965       0.34054843      -0.40985344
O       16.48274700      -4.59601843      -1.64357586       0.75830956       0.50045677       0.85560945
H       18.22874115      13.05471651       0.99971271      -0.00976509      -0.00247023       0.00705652
H       17.74958092      -6.64950593      -0.45525703       0.08391240       0.78618468       0.77787192
H       16.49975129      -5.98704000       0.56295168      -0.02660011      -0.06868523       0.34159408
C       13.59879539       5.31760360      16.05281587      -0.10323266       1.12813465      -0.56098938
C       13.90841406       6.38902305      14.92649301       0.31043755      -1.97325303       1.29374186
O       13.41526471       7.50208617      14.89083532      -0.32298669       0.75014880       0.11378371
O       14.80630333       5.95748424      14.00481880       0.58847243       1.16970527       0.65556537
H       14.43955025       5.04938046      16.73214360      -0.14233933       0.08266659      -0.83545341
H       13.14611090       4.43898062      15.59819593       0.26310344      -0.47126841      -0.12420682
H       12.82450474       5.70382207      16.71272673      -0.22910704       0.35239249       0.05665253
C        7.02504600       4.68554803       1.82602785      -1.39190658      -0.55788980      -1.51874431
C        6.02143970       3.65953514       2.30306358      -0.15792605       0.70364703       0.27572229
O        5.50002655       2.78084840       1.39090422       0.07746159       0.29537766       1.05317679
O        5.63772740       3.68965952       3.48861416      -0.01383420      -0.72341320      -1.01525263
H        7.24828365       5.39151118       2.55344130       0.04331609       1.35895886       1.85895937
H        6.66757212       5.26524497       0.95727945       0.05194368      -0.37000658      -0.08311218
H        7.96630177       4.25650560       1.61830745       1.25393143      -0.98242896      -0.70563540
C        5.18833530      -5.13300190       8.81314816       1.29023027      -1.64518377       0.08612378
C        4.95120818      -3.98649365       7.91807502      -2.38000612      -0.03815830      -1.96582756
O        3.91355438      -4.09541492       7.11427342       0.92230644       0.23147217       0.28582906
O        5.75494410      -3.03489431       7.95197736       0.51579337       0.56419082      -0.02178568
H        6.13815866      -5.57659061       8.39509704      -0.78483301       0.04540484       0.49571708
H        4.43651111      -5.93550342       8.98526720       0.21282738       0.64136186      -0.50612456
H        5.48538074      -4.70619631       9.73916975       0.31907356       0.16662672       1.42927444
C        9.73304757      12.39932872      13.75655602      -0.68199214       0.61804142      -1.37218777
C       10.48075420      11.11135166      13.48109353       0.35518780      -0.97419022       1.45846386
O       10.82424499      10.74751098      12.28189529       0.32450038       0.56128358      -2.18620485
O       10.82760780      10.36895564      14.43791263      -0.54266938       0.74086944      -0.16828955
H       10.50116379      13.21578163      13.70816836      -0.69261907      -0.29791947       0.69921029
H        9.14188721      12.24993222      14.66129168       0.62573588       0.47883483       0.54195590
H        8.93640225      12.73934027      13.01518115       1.06611614      -0.75185443       0.32793592
C       20.60288171       1.57108199      16.12010042       2.53747886      -0.03819154      -0.25349145
C        3.13096682       0.70517945      15.80778227      -0.01964905       0.86219375       1.27819489
O        3.72206754       0.06957098      16.68504803      -0.07462732      -0.23849083      -0.74731008
O        3.50719216       0.94025659      14.56249943      -1.77439304       0.87447236      -0.62900896
H       21.03861444       2.53396458      16.44066744      -0.23394535      -0.18121317       0.33420732
H       20.07770698       1.08460169      16.88203966      -1.23488193      -0.33160598       1.28355618
H       20.05688644       1.81867890      15.25698534      -1.08872407       0.07257223      -1.18063293
C       12.83761458       1.73295883      13.85114442      -1.36427150       0.65979588       0.85403143
C       11.59613525       2.70149535      13.71211094       0.61201212      -0.57556637       1.67596144
O       10.76704145       2.96375345      14.56561445      -0.07108690      -0.39308708       0.75437247
O       11.49339873       3.30335619      12.54160675       1.25849712       0.04466269      -0.87525594
H       13.15300527       1.57723799      12.85497876       1.12939687      -0.17358182      -1.16214184
H       12.53323246       0.74030499      14.18347421      -0.37918349      -0.02474809       0.42941512
H       13.63543560       2.07756384      14.53924751      -0.44234980       0.20141421      -0.37639121
C       21.80834641      -1.74506712       9.56464565      -0.26826715       1.10619312       0.10218692
C       21.43951445      -0.26491242       9.36086641      -0.30447841       0.02119386       1.48267814
O       21.32552850       0.16434983       8.20945684      -0.30367869       0.86930189      -0.82008966
O       21.32854279       0.47586556      10.48418145      -0.09963263      -0.63894763      -0.42681828
H       21.00858011      -2.25456096      10.13763233       0.54520617       0.14482789      -0.12950540
H       22.74574853      -1.66299514      10.12268486       0.03742125      -0.67082427       0.29020526
H        3.26753126      -2.23457232       8.59429240      -0.05104728       0.06457007       0.23213294
C       12.33346633      -1.32359126      12.04034970      -0.81027121      -0.38788390      -0.21451066
C       10.94422245      -1.97661934      12.13667396      -0.93089666      -0.70607748       0.05080244
O        9.88196779      -1.38057602      11.74665707       1.11550816      -0.12931833       0.00324151
O       10.90700944      -3.12966637      12.72131218       0.43658479      -0.08076854      -0.11854646
H       12.15787871      -0.27701891      12.10909141      -0.03841131       1.24243491      -0.32801709
H       12.90074508      -1.51974080      11.10080564      -0.25555566      -0.18890319       0.75008684
H       12.82356426      -1.58479314      12.97623226       0.71101754      -0.32196741      -0.20853147
C        5.20130970       5.26911759       9.09009139       0.19961884       0.25368714       1.31801676
N       22.54161892       4.79067164       9.09174533       0.68891880      -0.61563140       0.13047278
C       22.08474304       3.47439998       8.94126242       1.36565201      -0.15600044       0.60228004
C       20.74236575       3.58699877       8.78748237      -1.36933551       0.03904961      -0.75142486
N       20.41123488       4.93188975       8.75141777      -1.96331696      -0.75611240       0.91350302
C       21.48687861       5.60648975       9.05994325       0.08604275       1.39506684      -1.17148141
H        5.86307360       4.51778351       9.46704347       0.53724832      -0.89138386       0.10466079
H        5.28429245       6.07166041       9.82322337      -0.08454124       0.31500066      -0.08375395
H        5.55315543       5.63333687       8.14387910      -0.08198231       0.17548545      -0.75892843
H        4.07991330       2.63106127       9.10298683      -0.68031794       0.53808834      -0.26140731
H       19.93167396       2.87957647       8.60869427       0.60687055      -0.11257856       0.11330531
H       19.14714316       5.48484828       8.60782629      -0.06970337       0.30126555      -0.43706038
H       21.51098118       6.69151237       9.02214600       0.34563766      -0.01708991       0.21217023
C        9.99481674      -1.31175888       0.40567714       1.21934339      -2.36838522       1.42021113
N        8.56909654      -1.37210321       0.24736481       0.58717180      -2.59816652       0.40165855
C        7.69320253      -0.37406520       0.47045118       1.43627819       1.65261065      -0.14063984
C        6.50514927      -0.91323257       0.20370460      -2.54200216       0.72378133      -0.10980079
N        6.53304134      -2.22835976      -0.08968868       1.12948941      -0.81710741       0.67192511
C        7.83072913      -2.51831437       0.04304999       0.77325518      -1.02876966      -0.94848633
H       10.25496641      -1.41370215       1.47456987      -0.33615430       0.23533864       0.09637113
H       10.34128575      -0.36514323       0.09939110       0.68813892       1.10099929      -0.91287865
H       10.54447406      -2.22947306      -0.00314759      -0.96822539       1.34259365      -0.12375584
H        8.04112578       0.63915964       0.66586661      -0.29828236      -0.34966629       0.02810331
H        5.61471328      -0.38117058       0.11752801      -1.57545866       0.90001122      -0.00194706
H        5.32957206      -3.23017187      -0.36832816      -0.03544363       0.48465879       0.48497767
H        8.24066583      -3.54374040      -0.09810554      -0.08651327       1.13049708       0.12181064
C        8.88987821       5.48873489       7.35503776      -1.99879290       2.21423418      -0.20581600
N        8.62412137       6.60238264       6.32087150       0.32900308      -0.12282881       0.89734639
C        7.86062225       6.53960118       5.15254815       0.20132556      -1.04016264       1.43529802
C        7.96228809       7.73198920       4.53087609       0.85663384       0.70658591      -0.24048322
N        8.81206552       8.54742615       5.33768833      -1.96559476      -2.37427491      -1.23950419
C        9.18111097       7.83950805       6.39472211       0.01314394      -0.62288431       0.09634999
H        7.96382743       4.88035825       7.55461631       0.96212519       0.52499859      -0.39311435
H        9.12309147       6.08703427       8.23724520       0.03570001      -0.38936485       0.36998973
H        9.73103067       4.93535302       7.04182041       0.92352467      -1.04503147      -0.55309935
H        7.33904694       5.60497493       5.02705770      -0.22605327       0.02603343      -0.72905002
H        7.70302578       7.99417959       3.50499454      -0.36611866       0.33493602       0.12753624
H        9.28282526       9.30429709       4.84497321       0.70858074       1.76172967      -0.26736749
H        9.86876833       8.25539062       7.12093522       0.23101111      -0.22450325       0.56777930
C        5.91867424       2.39092262       6.75876582       1.29277430       0.30074605       0.00648543
N        6.55789518       1.11554470       6.35834552      -0.29655956       0.65582125       0.83247688
C        6.38112570      -0.12052816       6.98804734       1.13139967       0.89269269       0.58164047
C        7.35592462      -0.94333434       6.49451514      -0.67265730       0.83446857      -1.12540575
N        7.93542651      -0.26762946       5.44726229      -0.05603395       1.49787301       0.16020953
C        7.48554347       1.00137341       5.40089964      -0.34963511      -1.12632603       0.39629936
H        4.89704685       2.28822780       6.48470551      -1.29218009       0.19732084       0.49646597
H        6.30699231       3.16676885       6.11780013       0.25838161       0.21336596      -0.83592388
H        6.19656360       2.82762347       7.76331225      -0.49292292      -1.40013719      -0.48794461
H        5.76803618      -0.17215185       7.86075486      -0.35456492      -0.29895378       0.28082470
H        7.65196618      -1.93683861       6.63632021      -0.06992559      -1.33451792       0.46528646
H        8.52735540      -0.68694356       4.70637480       0.41863858      -1.01027142      -0.46703093
H        7.72352034       1.74900484       4.68243377       0.35805447       0.52127861      -0.43731212
C       12.24017651       6.51830228      11.49695108       0.80131134       0.36690048       1.70403636
N       10.77627363       6.72971538      11.41380858       0.34666839      -3.02858462      -0.44946194
C        9.82238529       5.65019605      11.42186629       0.74870386       0.94839228       0.20443943
C        8.60977832       6.17820496      11.01894100       3.16917313       0.27512012       0.20713614
N        8.82152022       7.47524745      10.63120921       1.34332541       1.63732567       0.65379854
C       10.13537922       7.77529383      10.92655767      -2.30193008       0.26006424      -1.09673999
H       12.83954498       6.64202727      10.62071843      -0.37234342       0.24958169      -1.63548815
H       12.51664533       5.49753885      11.82214134      -0.65355295       0.42757742       0.28280165