640
Lattice="19.152215 0.0 0.0 0.0 19.152215 0.0 0.0 0.0 19.152215" Properties=species:S:1:pos:R:3:forces:R:3 energy=-80138.12425570535 pbc="T T T"
C        8.39399269       6.81266330      10.99402768      -1.49170519      -0.11152868      -2.49385082
C        8.82669175       7.28842986       9.59686235       0.78240532      -1.57104831      -0.12309410
O        9.96822489       7.70622977       9.35232832      -0.67930568       0.34479093       0.22295596
O        7.94072875       7.05953953       8.60671718      -0.40121881      -0.00695709       0.05773519
H        7.14818029       6.39288801       8.89044783       0.70784160       0.21254762       0.35883367
H        7.85630600       5.82120437      10.87822793       0.75080602       1.24570580       0.50323716
H        7.68682292       7.58895724      11.22805353      -1.03608713       0.19278621       0.66864643
H        9.17254078       6.91907773      11.67480124       1.69428065      -0.33314046       1.29846436
C       14.02094660      10.14005236       3.89795580      -0.42856206       3.00257897      -1.22996631
C       13.42394853       9.98891477       2.45685457      -1.46242576      -0.76507503       0.41452126
O       12.54326388       8.90688987       2.32706386       1.74038713       2.70449145      -0.77595982
O       13.59383312      10.79564357       1.49620379      -0.11787043      -1.65415677       1.47525511
H       14.18914947      12.34764493       1.41990379       1.10008758       0.38885230       0.24407220
H       14.04587800       9.29425460       4.49554159      -0.50393998      -2.25544237       0.85181931
H       13.41316994      10.93429735       4.48497329       1.01125150      -0.95219486      -1.10446394
H       15.08032282      10.43823034       3.87052491      -0.18236821       0.54805360      -0.29503049
C        1.81171680       4.05989514      -4.00371538      -0.45117139       1.72685196       0.29696226
C        1.83280704       3.77903566      -2.47828300       0.31143271       0.23431129       0.05914498
O        2.17074894       2.67290019      -2.06415610      -0.08051181      -0.11992340      -0.06428479
O        1.60908749       4.76561591      -1.51174553      -0.40922644       0.20232949      -1.68386021
H        1.25801243       5.63193025      -1.93572037       0.24460195      -0.88868361       0.06024763
H        0.76082560       4.18098178      -4.50669165       1.64742829      -0.46978390       0.95956079
H        2.40800732       3.25473681      -4.46801993      -0.41627787       0.28195310       0.00674090
H        2.34528317       5.05478644      -4.15927794      -0.53400506      -1.16700125       0.05029019
C        1.32466365      18.48382059      -0.66719129       1.30528870       0.41723710      -2.08777233
C        2.48939696      17.81270536      -1.41404892       1.32305257       2.55211827      -0.89255037
O        3.30588530      18.48474930      -2.11264133      -1.56493020      -1.91501537       1.35817041
O        2.57676957      16.48145595      -1.31575758      -0.14788486      -0.59188300       0.66091920
H        1.91840601      16.16477104      -0.61578194       0.05417087       0.01972973      -0.52741348
H        1.34639960      18.19917510       0.36974217      -0.49931492      -0.20684236       0.44385879
H        0.48551933      -1.01032758      -1.30086256      -0.36136280       0.10683172       0.80493449
H        1.47948828       0.42058665      -0.83177506      -0.24098194      -0.50605715       0.31794531
C        8.40582809      16.28497102       4.74027880       0.40617283       0.26986850       0.69938839
C        8.79892604      15.04130317       3.98975266      -1.81418068      -1.04549620       0.58755118
O        9.81622207      14.85666310       3.32827845       0.29393758      -0.00192478      -0.19081426
O        7.77644785      14.09781940       4.14064010       1.27961377       0.75597280      -0.25644099
H        7.95328973      13.15364665       3.73875097       0.16522321       0.02424863      -0.25864031
H        7.51340916      16.74732108       4.27423662       0.65327403       0.27752878      -0.09704826
H        9.27168456      16.92918815       5.03601679      -0.64071564      -0.18844835      -1.25298415
H        8.09005991      16.04164513       5.75796037      -0.37386036      -0.60296146      -0.01810700
C        5.42013892       6.31847175      -1.17519528      -1.29736345      -0.26266403      -0.36287503
C        5.30253987       4.77429487      -1.21357456       0.38503744       1.27147233      -0.42112667
O        5.25265050       4.19865395      -2.29203144       0.07355781      -0.40971448       0.04349194
O        5.26615946       4.08869837      -0.04498588      -0.11061372      -0.11164486      -0.77261271
H        5.17588704       4.73851986       0.69131061      -0.19528681       0.76513769       0.87216567
H        5.66294369       6.74531441      -0.21911127       0.39876072       0.04966036       0.68165396
H        4.39888757       6.70603895      -1.39683708       0.33242446      -0.35080731      -0.00111363
H        6.02974020       6.76394959      -1.97188171       0.18886995      -0.54365870       0.05966106
C        5.64925823       1.19550473      -2.92171408       1.77397604      -1.89944990       1.56298092
C        5.03980718       1.06823235      -4.24244925      -0.36601784      -0.13282297      -0.72355244
O        5.68578313       0.86644009      -5.25132768       0.85159532      -0.23759440      -1.15055784
O        3.69576758       1.14280806      -4.35257666      -0.57250816       1.11137174       1.74422539
H        3.39206868       1.49591592      -3.44662274      -0.32786532      -0.76239124      -1.10693362
H        4.98889514       1.36277180      -2.11097280      -1.17478531       0.15832202       0.81073531
H        6.37877991       1.98773735      -2.82954384       0.38893408       0.28041366      -0.58025145
H        6.19482977       0.20804021      -2.64021278      -0.76359529       1.41787523      -0.66059306
C       -3.66057017      17.96426032      -2.29518186       2.02739940       0.59590259      -0.44010362
C       -4.65052829      16.86352142      -2.40778449      -1.62373194       0.46610283       0.34960930
O       -5.32075105      16.71980730      -1.29435995      -0.08695693      -0.05744134       0.20215191
O       14.23680884      16.22818711      -3.46704364      -0.03872947      -0.12303652       0.93162569
H       -4.50366669      16.31494766      -4.80727384      -0.02504502       0.39676364      -0.12843231
H       -3.73183890      18.71096592      -3.13802460       0.00244511      -0.83978166       0.49239015
H       -2.62304858      17.44135065      -2.38634026      -1.33636448       1.21889690       0.29385645
H       -3.78376155      18.54635289      -1.33658728       0.34217076      -0.80358505      -0.77770981
C       -1.21832902      -0.99821076      -5.32904171       0.08992879       1.16755873       0.36013429
C       -0.67553120      -2.05313613      -4.43898180       0.50627514      -0.64484862      -0.66666879
O       -0.50100063      -1.89789253      -3.23563787       0.04078375      -0.22375104       0.25733466
O       -0.34731972      15.98033622      -5.14627731      -0.21519758       0.23391928       0.74627390
H        0.06608871      15.29561494      -4.50708040       0.20034056       0.07417095      -0.13979823
H       -0.41603484      -0.43259441      -5.79978716       0.55923759       0.02533139      -0.01698795
H       -1.73740368      -0.25176544      -4.71505875      -0.29575211      -0.19331191      -0.20850616
H       -1.80098597      -1.37679325      -6.14147193      -0.79022102      -0.40427684      -0.45281224
C       -3.22781941       8.81528167       8.40911086      -0.12295927      -1.88818195      -1.18779805
C       16.13436031       8.19301354       7.00925673       0.78502129       1.37402920       0.51343162
O       17.04420907       8.51102737       6.25504304       0.09685867      -0.02033585       0.01250464
O       -3.96618690       7.30844228       6.63714501      -0.24273540      -0.45927382       0.34140035
H       15.48676831       6.95221257       5.77146794      -0.18775404      -0.17754525      -0.38103874
H       -4.21768562       9.21271393       8.38038376      -1.09084667       0.54365540       0.18661068
H       -2.51806869       9.61703945       8.58044476       0.39503531      -0.17763345       0.29578697
H       -3.27916733       7.95723641       9.11826064       0.46381646       0.75777123       0.07154555
C       10.39723057      17.12399908       9.50291630      -0.13168259      -0.72804494      -0.92913794
C       10.43068740      16.86381674       7.99949850      -0.48778082      -0.59351346       0.37405520
O        9.61090224      16.18738419       7.37007357       0.47801187       0.32882415       0.42923116
O       11.50107865      17.39768889       7.37416133      -0.75920184      -0.71498015      -1.12467942
H       12.10448662      -1.31033463       8.00898731       0.67723693       0.81123121       0.69710870
H       10.54531648      18.19882180       9.60187966      -0.30705353       0.20832439       0.64092469
H       11.29938537      16.62199377       9.85427182       0.30129971      -0.00753480       0.46695532
H        9.52429375      16.66407287      10.01638743       0.65784668       0.71443819      -0.63455752
C       -1.88314845       4.32796196      11.57064944       0.60506611       0.82575693      -0.74481961
C       -1.19809000       4.50587570      12.86425604      -0.45061765      -0.13241211       1.29976578
O       -0.87163489       3.57611118      -5.54337537       0.25673566      -2.86271836      -0.03850955
O       -0.96349535       5.65399032      -5.80416039      -0.09338427       3.90863305      -0.62240063
H       -1.39243416       6.76821165      12.84691986       0.24532693      -0.13105123       1.00313892
H       -2.40838737       5.24448736      11.26412571      -0.03941027      -0.28870352       0.01126663
H       -2.51714457       3.46858609      11.60862678      -0.58413365      -0.66984271      -0.15993903
H       -1.05568214       4.15446680      10.87384968      -0.10969979      -0.17954549      -0.47038574
C        5.02485275       9.47966802       5.72486171      -1.05564098      -1.08137513       0.21635298
C        3.66351825       8.94534772       5.16876550       1.37368306      -0.25535213      -1.43113486
O        2.57601815       9.45822691       5.45935612       0.16456184       0.17325618       0.61979211
O        3.74665645       8.05554517       4.16149128      -0.43376490       0.62153189       0.62096853
H        4.66611634       7.40908360       4.01599351      -0.15162355      -0.06700114       0.54722439
H        5.12816970       9.35910811       6.82383768      -0.09201624       0.18130284      -0.49748387
H        5.02005616      10.50933398       5.43111878       0.03686040       0.88912484       0.28368761
H        5.86668381       9.04614524       5.19727017       0.26928689      -0.51816657       0.02304449
C       -4.35083150       0.01759651      10.56318021      -0.30566416      -0.25819804       0.13179162
C       -5.70309912       0.06411217       9.91180159      -1.58011882      -0.08221542      -0.69754242
O       -5.86863087      18.53548098       8.83915782       0.01728178       1.19756730       1.87603259
O       -6.64768844       0.86240939      10.52379498       1.70792638      -1.44414843      -2.05392791
H       11.69708588       1.19074015       9.72304238      -0.35253683       0.10858154       0.47950331
H       -3.74564181      19.92577570      10.09182370       0.46476566       0.53251596      -0.51173246
H       -3.85284216      -0.95268118      10.43131634      -0.19662882       0.08012960       0.05070573
H       -4.41193055       0.31483716      11.59522820      -0.00166029      -0.09688715       0.77528724
C        2.03350130       7.36900281      -6.16009910      -0.47576847      -0.68695076       1.26001971
C        3.23885883       7.70924570      -5.28564747      -0.91105800       0.65287475      -2.27441067
O        4.21401228       8.24369772      13.33262067       0.25222591      -0.19850798       0.55498349
O        3.14062833       7.40888016      -4.01336004      -0.49331497      -0.41019281       1.17264829
H        2.14218913       7.16904144      -3.81025945       0.72210337       0.34876994       0.63377228
H        1.04850740       7.50619411      -5.63793408       0.78236967      -0.11710835      -0.32593195
H        2.10129767       6.26737753      12.78594362      -0.08574363       0.82026379      -0.41644966
H        2.07828376       8.02414902      -7.01692003      -0.01970943      -0.24679959      -0.68167193
C        4.90499639      19.85316071       1.51020558       0.06136331       0.07276839      -0.23421589
C        4.81496950      19.16577258       2.89552229      -1.44540264       0.31264663      -2.97847092
O        5.80410812      18.85088297       3.50698413       0.74849181      -0.42331634       1.41748984
O        3.51138443      18.83721417       3.14304468       0.90061629      -0.38755297       0.77247986
H        3.43134313      18.23798608       3.96548243      -0.45224715       0.76636690      -0.27900429
H        5.53538394      19.26658539       0.80214142      -0.55552727      -0.23017372       0.43310456
H        5.48067258      20.77190855       1.56591296       0.14194537       0.52467209       0.39885211
H        3.94196528      20.11870876       1.02700104       0.40139272      -0.44869472       0.30209634
C       -0.98802785       8.50814766       3.05303663      -1.16185960       0.66509834      -4.53910954
N       -0.76457621       9.94456848       3.10258586      -2.18358633       0.41229112      -0.17797548
C       -1.48742811      10.98160657       2.42886690       0.24490149      -0.82713427       0.52404328
C       -0.85176815      12.15773846       2.83230396      -2.09299379      -1.15877232      -1.81510372
N        0.13860045      11.87918113       3.65330686       2.78557997      -0.99515034       2.08950956
C        0.17322693      10.50766939       3.81891573       1.46347654       2.38615295       0.99192092
H       -0.19503353       7.90066162       3.43608133       0.51341805      -0.11319661       0.72356031
H       -0.84032694       8.46721081       1.88599026      -0.65250730      -1.28997334       1.73501309
H       -2.04041262       8.20505688       3.27605701       0.91374171       0.18388874       0.13997935
H       -2.40598597      10.80345525       1.86779756       0.41521261      -0.12608942       0.13483713
H       -1.10125633      13.12876938       2.43574859       0.08200776       0.44798347       0.32102305
H        0.89401066       9.92944416       4.42371653      -0.32099611       0.51245472      -0.33945502
C        3.61363253      16.09644013       9.90051971      -0.71469128      -1.04310951       0.71750410
N        3.51147462      15.96040019      11.37617206       1.83296029      -2.37946604      -2.08603209
C        2.78271798      16.66946601      12.22194932      -0.05956373      -0.16112114       1.52563629
C        3.08007882      16.22399219      13.47048258       1.04480822       0.48803723       2.90232580
N        4.07929299      15.27611845      13.40878325      -0.10472100      -1.13383649      -0.52047888
C        4.26541561      15.04089173      12.10411049      -2.09944679       3.22134474       1.28459619
H        3.85277413      -4.08107342       9.47479848      -0.30800264       1.16842913       0.30484780
H        4.40792394      -2.34823186       9.67841964       0.05559235       0.13987040      -0.24796289
H        2.61945211      16.44479918       9.57077016       0.45845159      -0.12102542      -0.38549943
H        2.10736034      17.37324948      11.93358329      -1.76956403       1.88865447      -0.94974702
H        2.85945098      16.60730743      14.51242888      -0.28193378      -0.25247865      -1.57405218
H        4.94181050      14.45731369      11.61826624       1.91478592      -1.79778429      -1.03062360
C       11.49728030      12.81857166       5.55100389       0.30477609       1.29992188       0.62471750
N       12.42625266      12.72964426       6.73106964      -0.69300798      -0.10617447      -1.88250618
C       12.98613107      11.59848105       7.25913206       0.40085062      -0.53842259      -0.12317291
C       13.93214159      12.04686628       8.12271926       1.00757526      -0.10686530       1.75964095
N       13.94512878      13.41401080       8.23312589      -0.70813753       0.54668448      -0.81355504
C       13.02270361      13.79908091       7.32015113       0.48632268      -0.34776683       1.12972455
H       10.51888191      12.91957457       5.99532785      -0.71733944       0.30276615      -0.12449943
H       11.45896534      11.92286873       4.94788433       0.41424225      -0.47470608      -0.10819284
H       11.75625441      13.70911919       4.89645774      -0.20168563      -1.06687133       0.84180536
H       12.74866486      10.56316799       7.08139488      -0.47467315       0.06705831      -0.53648925
H       14.54792084      11.46071779       8.81054257      -0.13842282       0.06373014      -0.35809871
H       12.64064788      14.79149665       7.19762215       0.04450658       0.51737241      -0.29787145
C        6.90454436      13.43292897       7.51024136      -0.59925932      -0.21249787      -0.49514637
N        7.79069358      12.36410066       7.82227555       1.56951639      -1.73171156      -0.76981407
C        7.99705135      11.19603390       7.05070732      -0.66639670       0.74585705      -0.83808248
C        9.12174879      10.62799335       7.57246119       0.55272752      -1.36891915      -0.12454647
N        9.63677574      11.32702004       8.63192936      -0.66347236       1.03014796       0.16509696
C        8.81563075      12.37698603       8.72218705      -0.27610075       0.62022324       0.04554906
H        7.01682642      14.25844064       8.17853380       0.23232259       0.63396501       0.63435663
H        5.90338682      13.05353094       7.57669217      -0.92442061      -0.10594439       0.24910417
H        7.05411451      13.75413647       6.49582129       0.31537655       0.39092329      -0.67331967
H        7.45183261      10.97289848       6.10482122       0.34330700       0.25073217       1.07494069
H        9.61097310       9.69763436       7.30238957      -0.20544740      -0.01864983      -0.21735601
H        8.84951087      13.24385146       9.35922703       0.40097468      -0.00201433       0.54961025
C        7.69320837      10.76580716      11.52218775       0.03544589      -0.51752391      -0.94897256
N        6.40567380      10.91691128      10.75292014       1.31045032      -2.57206291       0.83661077
C        5.57911629       9.87833753      10.37047830      -0.28078249      -1.86344681       0.57292304
C        4.53184434      10.45936360       9.66436604      -0.04988603      -0.98138735      -0.32540960
N        4.77738912      11.82046305       9.51600353      -1.62962730      -0.83872793      -0.09692318
C        5.86155287      11.96665167      10.21478394       1.85253499       5.43268525      -0.01531282
H        7.81458465      11.61630607      12.27325059      -0.06926572      -1.13593886      -1.16172140
H        8.58964585      10.63242637      10.77836810      -1.56047672       0.61016645       1.30056853
H        7.53692656       9.76790835      11.99278092       0.42567480       0.78251718       0.24208906
H        5.84970536       8.83685501      10.68869748      -0.67867831       1.08886090      -0.45224038
H        3.63666624       9.95996629       9.25709072       0.59589397       0.28971676       0.09275895
H        6.39759174      12.92569738      10.35153901      -0.52985882      -0.40503936      -0.12401994
C        8.65775575       0.40046002       5.45954382      -0.28258352      -0.58048220       3.07242339
N        9.43546295       1.38568698       4.77425756      -1.03921709      -0.57417448      -1.18331023
C       10.64708066       1.76710125       5.18226243       2.01758184       2.33908521      -0.75048397
C       11.17124988       2.56148398       4.10872185      -2.35730197      -2.14540298       1.12663725
N       10.29483468       2.52074150       3.03731156      -0.37718681       0.03914988       0.58889009
C        9.24878624       1.81364425       3.48093665      -0.52068092      -0.35651531      -0.62909795
H        9.34268938      -0.41386989       5.81865556      -0.65279512       0.10758751      -1.09978005
H        7.75112188       0.11729985       4.90942044       0.39671953      -0.18785156       0.04269861
H        8.35365333       0.72926071       6.52045259      -0.06722471       0.34747878      -1.48954277
H       10.96135541       1.55681335       6.19546224       0.34366566       0.07875742       0.02380947
H       12.01578862       3.15449783       4.06296106       1.79865147       0.82827492       0.10756281
H        8.35995063       1.49596470       2.89272630       0.72509759       0.36679562       0.59259904
C        1.43339322       1.44218088      12.04009115      -0.94146400       1.84074996       0.08535156
N        1.05860886       1.65700752      10.58922370       0.03937078      -0.51293810       0.86458589
C        1.55176773       2.61449353       9.74477992       0.50917470       1.35399832      -0.41043395
C        0.83152759       2.46216973       8.57826941      -0.47682795      -0.27107329      -1.59150117
N       -0.08294644       1.40401795       8.61009270       1.24571961       0.47759116       2.22745145
C        0.08039124       0.97690685       9.88252968      -0.20105377      -0.65031836      -0.29415430
H        0.81586926       2.20454726      12.68320399       0.48920557      -1.79115305      -0.94095321
H        2.47694049       1.74245731      12.30659532      -0.39334907      -0.60098577      -0.82273721
H        1.24056774       0.37256147      12.20471630       0.09356417       0.42167511       0.57464446
H        2.32079488       3.38624034      10.01130117      -0.62040205      -0.83848683      -0.10523917
H        0.88245172       2.95037609       7.60574207       0.40985204       0.38712468       0.42601658
H       -0.46109625       0.12018419      10.28267641       0.18167690       0.16793101       0.22007273
C       12.99346164       4.24047289       8.60038009       1.28459619      -0.54394849      -0.77153553
N       12.98079360       4.77233684       9.96103804       0.70880605      -0.46173887       0.13176385
C       12.02917649       4.56647104      10.92622675      -0.06816643       0.82430333       0.02668572
C       12.32044930       5.47459448      11.93003249      -0.28701638      -0.90326111       0.29447946
N       13.52764158       6.10710140      11.67337613      -0.89408165       0.67365227       1.24915440
C       13.86704398       5.67152761      10.49901574       0.41844498      -0.43557805      -1.89144050
H       12.41297447       4.93337364       7.95632730       0.17631737      -0.58836790       0.04161404
H       12.66203959       3.17828442       8.54916127      -0.44162782       0.81263097       0.19597278
H       14.05533196       4.13755934       8.19038939      -1.24584266       0.68311280       0.75443513
H       11.29934231       3.79842023      10.79927231      -0.53179069      -0.13137468       0.05968512
H       11.70784095       5.61733540      12.81479017       0.35551142       0.15990587       0.08403550
H       14.72237836       5.95200338       9.91495426       0.40089210       0.24226558      -0.07524280
C        5.75743685      16.10458999      -2.90014169       0.26573063       1.08889820       2.82713225
N        6.38541303      15.13743033      -1.97695901      -0.91034838       1.15142228      -0.43208137
C        5.80702993      14.53167705      -0.84590778       1.48524152       0.30104705      -2.44613168
C        6.77753372      13.67818007      -0.44295181      -0.44228887      -1.71834762       2.14603352
N        7.91445226      13.82979967      -1.12617780       2.16776367      -0.36579461      -0.62512312
C        7.66715789      14.73162837      -2.07016937      -0.21719592      -0.07585462       0.78644998
H        5.50931807      15.74033971      -3.84405879      -0.17103866      -0.98720308      -1.79654367
H        6.35073949      17.02353150      16.22277029       0.29892645      -0.15470143      -0.28026451
H        4.85267375      16.41497653      -2.39767329      -0.61343320       0.14998448      -0.04469766
H        4.79843295      14.62060352      -0.67236667      -2.18526094       0.28964278       0.55800053
H        6.68076858      12.87608441       0.30618653       0.12322672       0.65613107      -0.06980627
H        8.36526716      15.24366799      -2.70313065       0.34996806      -0.12057316      -0.33659347
C        0.98245584      11.84097164      -0.52511616       2.55272997       1.68506351      -1.72105321
N        1.21817876      12.60504584      -1.87145077      -1.62775005       0.20601460       1.27302245
C        2.44586564      12.88655984      -2.38685956       0.25429516       0.32097170      -1.26627223
C        2.23332157      13.74336739      -3.45525187      -0.44792192      -0.08773594      -0.32649018
N        0.89215542      14.07384635      -3.60967216      -0.44124442      -1.83789042       2.42011605
C        0.30616788      13.35825492      -2.58356177       1.48037642       0.20195464      -0.74644822
H       -0.02063568      11.91341707      -0.17661797      -1.09028050      -0.25313297      -0.10121725
H        1.60429719      12.43776491       0.19261556      -0.30994171      -0.81530283      -0.27419385
H        1.40440438      10.84253862      -0.73384786      -0.50659668       0.23158441       0.60116134
H        3.33338078      12.36814995      -2.09938287       0.36957561      -0.10012391       0.31229413
H        2.87721450      14.04707248      -4.25389863       0.83709186       0.31063882       0.02269807
H       -0.70790505      13.32174794      -2.30327020      -1.11678298       0.15917554      -0.00444256
C       -0.76547096       0.10435276       5.02791450       0.52997616      -0.41684282       0.21181931
N       -1.03534168       0.26021310       3.55826787      -0.43297849       0.23482292       1.88875739
C       -0.34708433      -0.32658044       2.50008736      -3.47419903       1.82958546      -0.55399812
C       -1.20044235      -0.01380396       1.43943551       0.39864330      -0.20480498      -0.68525452
N       -2.32611221       0.72023107       1.78774634       0.76563526      -0.20937326      -0.36918882
C       -2.16603283       0.88142132       3.08686990       1.54559873      -1.32090647      -0.40186663
H       -0.16804657      -0.83114519       5.09819084      -0.39422168       0.51052759       0.27655752
H       -1.65689941       0.05304333       5.75544285       0.90552748       0.09379819      -1.69775018
H       -0.11846131       0.92860149       5.36848992      -0.13119548      -0.07960487      -0.04885280
H        0.62213460      -0.70164627       2.52792005       1.35807628      -0.87773691       0.39180395
H       -1.04176565      -0.23863991       0.40469167       0.10371281      -0.22332026      -0.39926625
H       -2.73584090       1.46788507       3.71458850      -1.45333913       1.00944341       1.41042380
C       -2.35176328       4.16031458       7.55431510       0.91873289      -1.00640857      -0.30218608
N       -3.13565877       2.97588919       7.18267890       1.14536702      -0.39997612       1.46007530
C       -3.02153971       1.60068876       7.58804434      -2.29971481       1.46615820      -1.56789423
C       -4.09063875       0.98614758       6.87233013       1.87949381       0.65410715       0.58252806
N       -4.74808366       1.92237978       6.07995449       0.15257584      -0.21955109      -0.01705320
C       -4.14228758       3.10935839       6.32259245      -0.80965549      -2.93527351      -0.40795082
H       -2.89119798       5.06730762       7.39906934      -0.97563153       0.61572984       0.12826692
H       -1.51460813       4.26315352       6.86546122       0.50675135      -0.21077147      -0.02365370
H       -1.98642878       4.09834002       8.57072429       0.07841813      -0.05768680       0.32073875
H       -2.33894191       1.29631902       8.35424954       0.38595718      -0.07824809      -0.03645041
H       -4.19792844      -0.11842543       6.87412387      -0.59165746       0.97167619      -0.19567820
H       -4.32816074       4.01360400       5.82583785      -0.43298712       1.15057566      -0.68259066
C        1.74712157       2.84166826       1.21288480       2.46803437      -1.41744124       0.77144906
N        1.15326201       3.87950703       2.00521847       0.83934292       0.95826894       0.54283343
C       -0.15318908       3.96502668       2.46740322       0.91541201       1.72779682       0.63446023
C       -0.23836415       5.18708450       3.15851812       1.47112959       0.77710128      -0.31321693
N        1.04940601       5.83594606       3.06879399      -0.88111461      -0.53020967       0.40054857
C        1.88445544       5.03029996       2.40477741      -2.14070570      -0.78833072       0.17739486
H        2.56790888       2.19192556       1.79685144      -1.92133813       1.31164186      -0.78310789
H        2.31850430       3.31824370       0.41452476      -0.16909140      -0.18514414      -0.28272435
H        1.02555233       2.14421169       0.81101409      -0.36561822      -0.09026731      -0.12889546
H       -0.85341262       3.20915972       2.20693856      -0.52834372      -0.53093068      -0.00953830
H       -1.04260862       5.76283237       3.71215844       0.77620218      -1.27871000      -0.94432941
H        2.97432810       5.18598936       2.23253730      -0.99022075      -0.08603246       0.02507181