640
Lattice="18.700606 0.0 0.0 0.0 18.700606 0.0 0.0 0.0 18.700606" Properties=species:S:1:pos:R:3:forces:R:3 energy=-80127.2839373929 pbc="T T T"
C        9.61713042       7.70922359      -1.32039389       0.18380052       1.66150378       0.88769055
C       10.76465737       7.92030863      -0.34809488      -2.03886038       1.05438949       1.51201133
O       11.94300857       7.86137232      -0.62371746       0.97295034      -0.02083202       0.03536076
O       10.35060963       8.29153611       0.95607625       1.12584663      -0.46941236      -1.30227314
H        9.31780031       8.15136624       1.20146936       0.15855796      -0.21492567      -0.50437961
H        9.46036150       6.66558475      -1.29848562      -0.47252053      -1.51709476      -0.21840392
H        9.87213726       8.05493208      -2.32518696       0.10515078      -0.05551953       0.14111910
H        8.73278471       8.24877719      -0.92964889       0.18550845      -0.30549964      -0.38201955
C        5.88000134      10.61727687       0.95035723       0.08692323      -0.95217658       1.94745335
C        4.38514380      10.92426457       1.17500567       0.62517760       1.87885661      -0.00501590
O        3.92948892      11.16161558       2.31180784       0.40710424      -0.72931900      -1.17535559
O        3.68278895      11.17545581       0.02964761       0.89249853      -0.71502998       0.67015439
H        2.71738163      11.46230362       0.19714257      -0.35420834       0.22905680       0.16384074
H        6.44521951      11.02606785       1.84159467      -0.61049246       0.17723362      -1.02216571
H        6.41365606      10.80504609       0.01295296      -0.56868471       0.25630805      -0.17070911
H        6.03762971       9.54548252       1.18152254      -0.22515316      -0.15385167      -0.41329780
C        4.31476763       7.09660525      10.22630200      -1.67428749       1.18814934      -1.55762404
C        4.88657563       6.20280401      -7.50127218       0.95853163      -2.40614260       1.77663474
O        5.32897521       5.04923549      -7.74823658      -0.32286959       1.77078132       0.09319617
O        4.95059452       6.65804388      -6.22012368       0.43780244      -0.65002881      -0.38637521
H        4.28039839       7.39198168      -5.93672002      -0.25979792       0.56005464      -0.26818721
H        4.96495544       7.96303736      10.10859017       0.50277199       0.12811171      -0.11616646
H        3.37441020       7.57917987      10.62714250       0.52927992      -0.71975152      -0.42231767
H        4.13732292       6.64421168       9.21237878       0.01197704       0.26088099       0.89771004
C       12.69836804       5.94728211       2.57742245      -1.61336447       1.54430503      -0.86648848
C       13.86599094       5.28921265       1.86595978      -0.25590605       1.25194567       0.67130938
O       13.84768982       4.27156330       1.20117000      -0.01054900      -0.75204012      -0.25229847
O       14.96090395       6.06305375       2.01869042       1.78941462      -0.33958050       0.24399990
H       15.86266530       5.59888163       1.77902801      -0.96484246       0.57123227      -0.11221681
H       11.84555675       5.22630307       2.68210784       0.68826418       0.73499142      -0.25562183
H       12.33744807       6.89900097       1.91017501       0.57583528      -2.36930916       1.30583978
H       12.89957069       6.40164209       3.58222484       0.33517369      -0.52616243      -0.69102932
C        8.35161829      -0.69585305       2.30902251      -0.55629401      -2.38104165      -0.09106811
C        9.11956498      16.90001828       1.60061629      -0.46961714       1.43618046       0.26749150
O        9.98998413      16.24300579       2.19645828      -0.27403492       0.28567445      -0.47300352
O        8.81434382      16.72646548       0.31312459       0.83627592      -1.47027352       0.43889541
H        8.05619589      17.30406142       0.02656620      -0.12989273       0.78028611      -0.58128758
H        9.01888722      -0.25005428       3.00257585       0.30785956       0.68621668       0.99944435
H        7.53949844      -1.27608921       2.80447130       0.42157819       0.39120127       0.43424045
H        7.78947267      -0.01925770       1.70592760       0.04028485       0.82698798      -0.84840160
C       11.61352587       8.00992122      -4.52363276      -0.69845741      -0.33474340       0.78910317
C       11.29019776       9.44865161      -4.27703608      -1.01145896      -0.74735586       0.68864995
O       10.52100985      10.01582308      -5.18218895      -0.41430236       0.83964566      -0.78571602
O       11.52741463       9.99194003      -3.18986748       0.91257784       0.53715456       0.70037584
H       13.29200777       9.46432297      -2.62881422      -1.78598676       0.00796202      -0.37692335
H       11.74027435       7.79607667      -5.55076135      -0.04697024      -0.30006734      -1.29244458
H       10.81083278       7.35587079      -4.10526150       0.12537534       0.51144017      -0.39475313
H       12.48624135       7.66968966      -3.99313395       0.52481835       0.14937769       0.24990002
C       15.69604864       4.12071649      -1.69101744      -0.06847586       0.60409209       0.01789792
C       16.81929297       4.45398678      -2.65321397       1.14393025       0.01141386       0.64267094
O       16.71092486       4.37044834      -3.87093712      -0.02274931       0.17583160       0.09502553
O       -0.64231454       4.80164040      -2.10837750      -0.70240452      -0.74854004       0.88597598
H       -0.54930501       4.47320856      -1.09205763      -0.18506548       0.45744265      -1.05132845
H       14.84622758       4.79079391      -1.90627475       0.14720463      -0.06439207      -0.13988994
H       15.87950120       4.24578187      -0.59665146       0.20870196      -0.50477525      -0.82314401
H       15.37986924       3.12934368      -2.03395151      -0.17413834      -0.20828721       0.53539543
C        4.92694239       4.89599138       3.78604691      -0.73876592      -0.09222276       2.04243475
C        4.27073337       5.61165161       2.67729893      -1.79609812       0.51622505      -0.05405973
O        3.12650194       5.24509842       2.29073907       0.44852334      -0.03081348      -0.26102243
O        4.77546415       6.70149465       2.14080663      -0.32940784       0.15542566      -0.66301712
H        5.67143785       7.03589288       2.55170731       0.67787020      -0.33358167       0.57754047
H        5.11706776       5.49237193       4.74796816      -0.34844262      -0.41767939      -1.47350016
H        5.84886502       4.46954151       3.48993121       1.44487665      -0.40015048      -0.49106507
H        4.25186905       4.06416653       4.06772328       0.25932939       0.36382963      -0.01462684
C        3.35364756      12.66492181       8.90713743       0.62232583       0.88887075       0.33224037
C        1.87494892      12.39027629       8.89566580       0.19208176      -0.09185369      -1.97670393
O        1.16266586      12.51811509       9.86334749      -1.07259924       0.08274522       1.18889922
O        1.44608068      11.98185208       7.65809968      -0.08901820       0.03025648       0.13729961
H        0.43917087      11.82577754       7.52507579       0.45117278       0.20767693       0.38305297
H        3.82876630      11.70925735       9.19215738       0.06711135       0.57770085       0.13654011
H        3.58861522      13.47188221       9.68579848      -0.20361802      -1.09352347      -0.96309455
H        3.76110794      12.95710317       7.90511733      -0.37394356      -0.20721171       0.70695772
C        6.21814212      14.00495966       0.28432268       1.85691579       0.75485490      -2.87274555
C        5.77481138      15.16478578       1.09976824      -0.00076494       2.80292828      -0.39429349
O        5.09370438      16.08167309       0.58645745       0.27941015      -0.98240861       0.50115492
O        6.20240088      15.32325113       2.37063298      -0.16012977      -0.87570643      -0.26152542
H        6.63775232      14.41385808       2.64251992       0.11273235       0.22496063       0.07892245
H        5.77928671      14.19056246      -0.76019069       0.91661244      -0.15780693       1.20700324
H        5.70380104      13.17191071       0.61636022      -0.90527414      -2.20504960       0.92920290
H        7.36986372      13.71873718       0.19231652      -2.42119311       0.91562295       0.47390045
C        9.53591645       4.34462229       1.98819636       0.39545228       0.05771112       0.52766169
C        8.42994541       3.36310084       1.69752572      -1.34259791       0.48369433      -1.10428402
O        7.40659372       3.30392370       2.39626535       0.57146808      -0.31766923       0.03921539
O        8.56111975       2.69216858       0.53833530       0.12055052      -0.64464032      -0.42595300
H        7.73760324       2.11271561       0.20308528       0.41820624       0.72578360       0.89420567
H       10.23566893       3.77998100       2.62374184      -0.27609253       0.31926972       0.61869909
H        9.06075786       5.21881351       2.50792719       0.69329344      -0.72532469      -0.21655232
H       10.24895268       4.66370119       1.20687442      -0.90801700      -0.08900975      -0.58856847
C        6.59159116      13.89290308      12.38333296      -1.67994807       0.19854601       1.04582374
C        5.71365012      14.69836194      13.40896582       0.38000340       0.93818147      -2.16416222
O        5.70204424      14.44921036      -4.07626771       0.35534677      -0.68810399       0.58517926
O        5.03775177      15.72692323      12.90486751       0.49808224      -1.01884725       0.65943923
H        5.04683486      15.76803120      11.73465662      -0.37291093       0.18358354      -0.06736699
H        6.32993567      14.06228313      11.32931244      -0.18071584      -0.24843226       0.30964621
H        6.53755434      12.86015317      12.72466964      -0.11999666      -0.24841933      -0.55868119
H        7.60536002      14.17316499      12.51712139       1.36074990       0.61197675       0.22411197
C       13.47939233       7.29195604       9.79468301      -0.63579470       1.96616508       2.81291464
C       12.85990195       6.51667329      10.94638082       1.79468432      -1.29018272      -0.11713862
O       13.49897788       6.17387483      11.98208031      -1.12229479       1.02072720      -1.67151902
O       11.71769128       5.93830099      10.63643780      -1.01045102      -0.78571873       1.40937066
H       11.20120678       6.26162151       9.83515553      -0.03157886       0.55435876      -0.71120559
H       13.05435579       8.34009567       9.82631277       0.65441524      -1.16871596      -0.34802976
H       13.26581165       6.82968025       8.88869383      -0.39390444      -0.81830668      -1.80376887
H       14.52233269       7.31040412      10.03724010       0.88423562       0.33056826      -0.19548435
C        6.05371523      10.96656906      -4.37898792       0.47326096      -0.11049558      -1.62612341
C        6.78702541      11.15476493      -3.08602286      -0.64203784      -3.05921188      -0.19676352
O        7.14512074      10.19093900      -2.41055828       0.06820882      -0.10349211       0.19938316
O        7.11656201      12.35652372      -2.74512081      -0.05232771       2.98465673       0.15333297
H        6.73172095      13.03578893      -3.39051217      -0.03629163      -0.01155579       0.45136415
H        6.91000489      11.04669554      -5.15228142      -1.40266597       0.24574089       0.63994239
H        5.22562194      11.69231496      -4.57161064       0.79454608      -0.26642305       0.00747076
H        5.64945307       9.94799880      -4.54113470       0.11692690       0.33708446       0.55980194
C        6.07789256       4.98706015      -0.22844598       1.04096860      -1.23493014      -0.69457800
C        5.05473191       4.51979561      -1.29811725       0.30629773      -0.72660417       1.88443572
O        4.65291650       5.34135395      -2.09944361      -0.63666570       0.29348535      -0.77899120
O        4.58746591       3.20618583      -1.27770733       1.75770610       0.46688153       0.47043207
H        5.31643418       2.49068682      -0.82597104      -0.84273316       1.25578221      -0.58642313
H        6.15483405       6.08270238      -0.01025188      -0.45946445      -0.89956767      -0.27750682
H        7.05378561       4.71136597      -0.70659903      -0.23294581       0.33561842       0.11027306
H        6.12776969       4.34367327       0.66879864      -0.47486536       0.45494244      -0.05729459
C        7.05302846       2.69261164       5.74504852      -1.34015217       0.14104586      -0.43926323
C        7.60191616       1.39042686       5.31455202      -0.09997924      -2.33091555       0.13602799
O        6.90706251       0.47873496       4.78897425       0.27269107       1.15685307       0.31213428
O        8.85421823       1.07752899       5.65706553       0.93943583       0.38733973       0.76995383
H        9.31788252       1.78334231       6.38154638      -0.76097396       0.27514494      -1.02420114
H        6.05508533       2.77397760       5.26924998       0.46679085       0.21130419       0.27466457
H        7.66954366       3.54173849       5.50186060       0.43416139       0.33435366      -0.31011113
H        6.93602347       2.68835950       6.83122415      -0.01710156      -0.07155582       0.26456159
C        6.95712120       6.26518884       6.97566417      -1.51871509       0.60783981       1.18497613
N        8.22144027       6.81066937       7.44267517      -0.44426709       2.05304188      -0.57663333
C        8.63918065       8.17288699       7.44960802       1.66926310      -0.66429125       1.27894311
C        9.83454682       8.14775562       8.24300903      -1.46638046       0.23376665      -1.51783778
N       10.10452243       6.87276028       8.64083151      -0.64784551      -0.94451964       0.09311507
C        9.08998077       6.10252866       8.15592831       1.63877496       0.08391733       1.32745460
H        6.50310686       5.68845740       7.81202441       0.70508155      -0.49473878      -0.56948089
H        7.01135602       5.69594941       6.02905753      -0.05121158       0.48860112       0.39486728
H        6.20513401       7.08570786       7.03122123       0.50466088      -0.21977573      -1.06586049
H        8.13559074       9.04437669       7.02096516      -0.05130694      -0.71995703      -0.06054678
H       10.51419115       8.97200673       8.47660371      -0.30867639      -0.16863327      -0.10473581
H        8.87364172       5.08403161       8.46607384       0.38634464      -0.05840980      -0.43575088
C       12.04828879      15.12273901      10.20105950      -0.18098444       0.61730955       2.18787015
N       10.80521555      15.86270820      10.54948336       2.04658644      -0.84535401      -0.92742706
C        9.56582605      15.62881199      10.08210224      -0.03969687       0.20268742      -0.59420122
C        8.80431679      16.60650463      10.62245432      -2.89048192       0.02658685       0.89324152
N        9.48501495      17.36852701      11.54394744       0.69718152       0.01466591      -0.90670720
C       10.71637158      16.91905111      11.37677627       2.01463540       0.08891919       1.48481929
H       12.78054882      15.37106771      10.98430207       0.13888839       0.43142709      -0.31709556
H       12.47392860      15.24808501       9.22941710      -0.11630754       0.58967592      -0.84110927
H       11.91488260      14.08491042      10.39556312      -0.55725159      -1.19858809      -0.14656914
H        9.42863765      14.89414746       9.35438150      -0.50679598      -1.01622993      -0.96480434
H        7.71877116      16.69825439      10.56300626       0.19312758       0.05386712      -0.20684076
H       11.64690299      17.12675967      11.89905987      -0.30328568       0.71820244       0.26806199
C       -2.48060000       5.17644378       5.54066191      -2.63135652      -0.48714980       1.52517535
N       15.19332124       6.29967053       5.87913258       3.41067380      -3.17977021      -0.82249798
C       13.91951269       6.10809213       6.31132616       0.01362175       0.67543790       0.01038415
C       13.48146211       7.39003208       6.38209619      -2.83789737       3.10754255      -0.08596909
N       14.42246405       8.38183951       5.99187714       0.11699579      -1.86332103       0.17336804
C       15.48524492       7.59361847       5.70540245       0.52663387       1.03954756      -0.42216387
H       -2.55197187       4.96162693       4.47002096       0.16426232       0.16228833       0.09428048
H       -2.91318082       4.26715226       6.11353014       1.03179796       1.18876280      -0.92373969
H       -1.46622318       5.42681956       5.87743728      -0.23826020       0.11686369      -0.09097730
H       13.43789906       5.18543398       6.57604823      -0.10944245      -0.40658155      -0.02112596
H       12.42225508       7.74818450       6.57248979       1.37184988      -0.65406949       0.05343482
H       16.53233752       7.80884935       5.39007773      -1.02799631       0.45084620       0.15197980
C       11.15575258       0.69490978      -0.57711203      -1.09294674       0.63657399       2.00637053
N       12.51883234       0.10432275      -0.42563373      -1.49411196       0.30777429      -0.41035894
C       13.80776060       0.58242705      -0.75849122      -1.12657509      -0.91114863       0.89861395
C       14.60790277      18.16238239      -0.58509653       0.26103929      -0.01060513      -0.65298660
N       13.84411569      17.03485030      -0.33602728      -0.27191936       0.06793895       1.26768017
C       12.57594977      17.46983476      -0.13850245       2.36577486       0.29783808      -1.23288544
H       10.50827959       0.26504805       0.32223886       1.41877803       1.49169672      -1.36120000
H       10.55289099       0.27967790      -1.39902401       0.73501648       0.18619100      -0.46942151
H       11.18027868       1.84591669      -0.62253461      -0.11620527      -1.72232969       0.24488676
H       13.98820650       1.63622195      -0.93820915      -0.03461611      -0.09816481      -0.00282344
H       15.70734627      18.09596503      -0.66724577      -0.88461519       0.00590200      -0.15614947
H       11.72608711      16.84884349       0.10945395      -0.10548123       0.16489551      -0.03376356
C        1.26034224      11.56170590       3.99435958       1.54704779      -1.20931073       0.89810880
N        1.04938799      10.10584621       3.91974372      -1.60675341      -0.17639595       1.79987814
C        1.37960669       9.28485258       2.88891362       0.29649638      -0.05843876      -1.24094613
C        1.00038032       8.02281549       3.25665798      -0.96141379      -0.86909202      -0.59873213
N        0.37286698       8.03512841       4.46920613      -0.78571506      -0.56392469       0.58669949
C        0.31603607       9.28926154       4.85268848       1.90474135       1.52429947      -0.17019609
H        2.20031891      11.71987427       3.46503993      -0.13330539       0.38588585      -0.28686264
H        1.44428490      11.89267353       5.03612349      -0.48773619      -0.24382713      -0.36525253
H        0.43322529      12.01747580       3.53305059      -0.99578360       1.13331672      -0.49835819
H        1.76464641       9.62676916       1.92206197       0.06017404       0.06273771       0.66188735
H        0.86511427       7.12913459       2.65870270       0.57272661       0.00636586      -0.05172914
H        0.00752843       9.67677755       5.83433473       0.00680797      -0.13264883      -0.56145912
C        3.72700397       1.84484049       6.88225605      -0.24847662       1.24967297       2.54561968
N        3.43615872       3.33328176       6.93643891       0.18210715      -3.72971857      -0.84969172
C        2.42608973       3.78516508       6.13334271       1.11679021       2.61673419       0.97570341
C        2.50124979       5.15426297       6.22993160       0.53906525       0.18379134       1.34746822
N        3.54256021       5.46366564       7.15169832      -1.16055813       3.31491070      -1.51642699
C        4.13275812       4.37170456       7.48575079      -2.17931395      -1.82786894      -1.30691600
H        2.95323784       1.30421551       7.48390180       0.58432253       0.23892195      -0.46333911
H        4.72479845       1.64821708       7.28753585      -0.10968172       0.01537030       0.09154728
H        3.69404430       1.59222763       5.87109101      -0.05854982      -0.81776069      -1.80038479
H        1.74721101       3.25357292       5.55740367      -0.85260298      -1.46281247      -0.80285005
H        1.81448203       5.87710520       5.78387110       0.41175739       0.10355784       0.18383287
H        4.91113378       4.16480067       8.13178669       1.66800734      -0.10955311       1.31986239
C        8.04559982      -0.94778022      14.26236849      -0.17340183       1.28935080       0.13472066
N        7.59955332       0.44759249      14.15377175      -1.59131239      -1.07823571      -1.23555157
C        6.60173641       0.93260806      -5.42939062       0.12058283      -0.65881090      -0.28267841
C        6.75795482       2.28055362      -5.35701286      -0.78294320       2.14675559      -0.18595726
N        7.70236717       2.66210166      -4.41431075      -0.11168706       0.26513010      -0.38557614
C        8.18223005       1.50840163      -3.96982565      -0.64179334       0.55374303      -0.63105833
H        8.57311197      -1.18522696      13.33868861      -0.03463727      -0.24503417      -0.16541193
H        7.15561614      -1.54706459      14.41858582       0.07386577      -0.54879220       0.29949714
H        8.75474062      -0.90768197      15.08741609      -0.13419473      -0.66828427       0.35753948
H        5.80876011       0.39613550      -6.01846557       1.49725163       0.01861936       0.82905484
H        6.17951669       3.06935885      -5.90352569       0.65569276      -0.76111655       0.37934690
H        8.83464237       1.37489929      -3.16312055       1.20370068      -0.03752094       0.96667423
C       12.55826277       1.84307416       2.59047473      -1.52083342      -2.85938969       1.19685632
N       13.58144695       1.76517620       3.64679310      -0.59099850      -0.13987367       0.65596172
C       13.42036206       1.52675655       4.99954082       3.78182231      -0.60144702      -0.55486861
C       14.75160435       1.33965202       5.46589037      -0.93734320       1.07935833      -0.23688674
N       15.69875523       1.58248465       4.48887207      -2.03457559       0.14080291      -0.59832300
C       14.91082896       1.81095899       3.41768516       1.45310866       0.22256345      -0.40227632
H       12.86442392       2.65028033       2.01278955       0.08578875       1.45421243      -1.71119641
H       11.49992809       1.97156936       2.99006101       1.42899681       0.10182617      -0.07207087
H       12.51388083       0.84456894       2.02809751       0.30144286       1.42399289       0.54331266
H       12.51109305       1.33981362       5.43778191      -2.06246735      -0.22823235       0.97044900
H       15.12590807       1.27060247       6.45748403      -0.15940641      -0.35729179       0.83047507
H       15.31798275       2.08095515       2.46575102      -0.03527167       0.03138220      -0.63825174
C       12.91975802      16.84019650       3.74720263       0.23564160      -0.40132379       0.34622143
N       12.95712200      15.45042854       3.31274562       2.10284024      -0.29069330      -1.58027617
C       12.55780321      14.36492121       4.00427757      -0.00626536      -1.97744429       0.79313458
C       13.13703927      13.22850457       3.43737470      -0.12309272       0.84959315      -0.74789295
N       13.91981722      13.61052317       2.33813171      -0.88410795       0.43752945       1.23284431
C       13.82960315      14.94358968       2.33419360      -0.27245260      -0.46123229      -0.51611797
H       11.91325840      17.19113088       3.67933684      -0.90765893       0.50559385      -0.27356983
H       13.59525431      17.40847416       3.10938009       0.02113699       0.17200973       0.09423981
H       13.20219458      16.89231602       4.80652702       0.30706834       0.14375060      -0.21109419
H       12.02409448      14.40709001       4.93372705      -0.35000806       0.23080560       0.19164099
H       12.96527303      12.17993355       3.65598311       0.22983775       0.65097144      -0.01812957
H       14.27381527      15.45270813       1.48906595      -0.14052975       0.91370192       0.35364610
C       16.15210923      10.09635727       9.39477687      -1.51038606      -1.13099637       2.26796091
N       17.25790544       9.14694442       9.25630610      -0.63334763       0.20541683       0.46665470
C       17.12549760       8.00389696       8.45747155       0.71577889       0.84508018       0.53553127
C       18.40029182       7.54924033       8.31904697       1.69543331      -0.72087697      -0.26189125
N        0.62741659       8.34121873       9.03952043      -0.53970420      -1.17419262      -0.35902235
C       18.57768025       9.24342732       9.64490151      -0.42372497       1.11132565      -1.04972576
H       16.15902784      10.93672032       8.75467755       0.47954580       0.79351789      -1.27846414
H       15.91987295      10.51462742      10.42691004       0.91866834      -0.74376596      -0.71832518
H       15.26406430       9.47030146       9.19302951       0.05162251       0.51909611      -0.19953872
H       16.18169174       7.63594652       8.09759248      -0.14190856       0.17347545      -0.05770869
H        0.06198413       6.70790877       7.69946453      -0.28174586       0.47103967       0.57140211
H        0.26520189      10.15021301      10.10594311      -0.17844922      -0.21192594       0.26097519
C       12.72646162      19.96477769       9.00039812      -0.50024474      -0.28828458       1.49454102
N       12.89421310      18.74487999       8.20776993       1.62928361       0.25507747       0.10344124
C       11.89008247      17.98797456       7.68397431       1.15236052      -1.59058481      -0.18997490
C       12.51069818      16.81391128       7.26120349       0.20794005       0.01646228      -0.16533188
N       13.89458358      16.87612335       7.46653684      -1.03163201      -1.13813853      -0.96711952
C       14.12117202      18.02125787       8.02117060      -0.97736562       2.93459324       0.67768955
H       11.71506199      20.39891644       8.82736427       0.68370852      -0.19243175      -0.04113755
H       13.48990097      20.70445329       8.78274629       0.08240683       0.18101315      -0.45962994
H       12.85582889      19.73273235      10.11650130      -0.41874441       0.09132890      -1.44205428
H       10.87065285      18.27951447       7.62586232      -0.70124133       0.36397644       0.19164314
H       12.08295891      15.93032753       6.79570001      -0.10998123       0.14530202       0.15628800
H       15.07804492      -0.11987145       8.06487082      -0.58982127      -0.83674635       0.48603969
C        1.49590416      15.57776496       7.30432466       0.24175957      -0.19080279      -0.43636954
N        1.96080761      15.86252864       5.93484636       0.25473380       0.37354655       0.03766890
C        3.17465439      15.56624947       5.34107400      -0.37708085       0.00681276      -1.10791969
C        3.20631951      -2.41413184       4.13545490       0.53214695      -0.70850757      -0.17081499
N        2.06548361      -1.63447192       4.01348611      -0.15923624      -0.27582455       1.21041416
C        1.37649194      -1.88503436       5.15947223      -0.56326373       0.28273569      -1.59280420
H        0.86176974      16.44483305       7.49183353      -0.43619310      -0.41036708       0.59411346
H        2.37180292      15.67861170       7.94690891       0.01373284      -0.15768171       0.30579754
H        0.99448210      14.57582629       7.42380540       0.35430013       1.02994801      -0.32343148
H        3.75666668      14.74094720       5.69614083       0.41165628      -0.11783522       0.23313893
H        3.97460582      -2.51149677       3.30900823      -0.95299417       0.28370571       1.15375788
H        0.35330052      17.17749083       5.35578859       0.71119743      -0.04869640       0.01016197
C       13.17846221       4.39573287      -4.42399851      -1.12916970      -1.25510424       2.99159149
N       12.11964922       4.54799864      -3.32069082       0.19802263      -0.60542210      -2.55948121
C       10.83896788       4.00442199      15.19152038      -0.16142294      -0.54780408       0.24953733
C       10.24174289       4.14826958      16.43323125      -3.00644308      -1.61785935      -0.27900061
N       11.05956203       4.72669728      -1.37975524       0.15564668       0.92716753       0.72349256
C       12.16759134       5.02446733      -2.06713426      -0.21469028       0.22941568       1.46298807
H       13.30757869       3.29691067      -4.52222253       0.28607658       0.72260742       0.00103082
H       14.06112611       4.95299858      -4.17498843       0.59372512       0.03359079       0.30164230
H       12.75632763       4.83203305      -5.26254072      -0.80693183       0.70866886      -1.85195051
H       10.45155003       3.43312463      14.32080204       0.79062413       0.65454771       0.55433963
H        9.16895085       3.82339723      16.73242490       1.99275617       0.46271636      -0.58818483
H       12.76698825       5.80677632      -1.63558076       0.98261953      -0.22362847      -0.40055665