640
Lattice="19.152215 0.0 0.0 0.0 19.152215 0.0 0.0 0.0 19.152215" Properties=species:S:1:pos:R:3:forces:R:3 energy=-80137.53636417889 pbc="T T T"
C       25.02671186       5.30778393       7.00758884       1.18960961       0.17143211       1.37792517
C       24.38946445       6.61127246       7.61219231       2.03246245      -1.91782422      -2.44241354
O       24.68102906       7.73376665       7.19575726      -0.30923158       0.23820819       0.68355075
O       23.53954485       6.21519354       8.50019937      -1.82803280       1.17039217       2.44201555
H       23.10755523       7.05073860       9.08965224       0.26530279      -0.17009477      -0.70751488
H       25.84580938       5.44676113       6.29424616      -0.16832208       0.40204020      -0.10900063
H       24.27230833       4.68034300       6.57399449      -0.74909856      -0.24980063      -0.42466903
H       25.47755525       4.67524692       7.83142104      -0.49630307       0.67276140      -0.53907306
C       18.28020050      16.24313943      11.39584609       0.06995674      -1.49647531      -0.44693574
C       17.44223790      16.00259229      10.09920098       0.63369078       1.21505315       0.91800514
O       16.76428111      14.99920012       9.94297697      -0.30465238      -1.27342918       0.17799664
O       17.35888164      17.01692811       9.22202869      -0.28108765      -0.52807317       0.13138677
H       16.53186511      16.67057730       8.60166470       0.88719996       0.68551862       0.29036668
H       17.91540774      17.09829684      11.91613965      -0.32283658       1.26839656       0.22947534
H       19.39389493      16.34359244      11.31316346      -0.85757774      -0.11733453      -0.29720954
H       18.02378253      15.40466706      12.08425174       0.46504569       0.16855539      -0.50711741
C        8.69779398       8.30021594      -2.88797404       1.83842959      -1.69523567      -1.10734484
C        8.69146608       9.67599379      -3.47298674      -0.60674436       0.78555411      -0.82684041
O        7.70410215       9.92282709      -4.36699869      -0.49872371      -0.91120595      -0.08485807
O        9.51876302      10.54083756      -3.24102523       0.90045198       0.20400643       0.66254367
H        4.13958766      10.11680369      -1.68824191       0.07053006      -0.12200344      -0.42224809
H        8.60986917       7.50218495      -3.73711195       0.42619466       1.32863679       1.17978672
H        7.86605161       8.01980658      -2.25305066      -0.29404053       0.36623056       0.56902665
H        9.72186896       8.19648712      -2.36694879      -1.70339731      -0.17665178      -0.52692201
C       12.88191063      11.91198636      -2.78069706      -1.18356199       0.10402493       0.27116367
C       13.10786570      11.60707627      -1.25588550      -0.33112261       0.58801326      -1.48035463
O       12.30430422      12.07093890      -0.36699046      -0.79391413       0.28224460      -0.17716979
O       14.16136232      10.99194544      -0.95076985       0.65939473      -0.45593301       0.55125107
H       14.25260529      10.85376829       0.58499275       1.03393563      -0.78415948       0.40598099
H       11.83843669      12.30368982      -2.99983725       1.24055284      -0.20513335       0.36895635
H       13.08939163      11.13161517      -3.53119025      -0.13663244      -0.51846977       0.73134569
H       13.66069677      12.62235210      -3.05545671      -0.04905536       0.75763716       0.14619928
C       19.80861693      19.73919056      13.65030000       1.27488433       0.33692293       0.63594700
C       19.60198400      18.38908000      14.26763742       1.15322153       0.52066896       0.03621689
O       20.58265842      17.61635510      -4.70198120      -0.68585150       0.01101861      -0.42322199
O       18.36909108      18.17283252      14.53388188      -0.73157852      -0.34600750       0.36869891
H       17.88912529      16.94413491      14.77080021      -0.10756814      -0.01208096       0.40920580
H       19.28968235      20.54150842      14.19689667       0.28067022      -0.12946105       0.07234210
H       19.31462847      19.65636646      12.71422347      -0.36800647       0.22319500      -1.46141206
H       20.89478633      19.92346355      13.53001558      -0.66207212       0.27623309      -0.04682527
C       12.41395788       8.16423255      -3.74112452      -0.34228093       0.99441176       0.96280240
C       13.41255193       8.17905363      14.31444727       0.08589668       1.86143324       2.21648386
O       13.70176756       7.26979001      13.60617622       0.54288212      -2.19484098      -2.25824967
O       14.11639753       9.37533394      14.30781429       0.28291707      -0.24132587      -1.35003968
H       14.67127871       9.36742674      13.46370323      -0.51862557       0.17940481       1.14335323
H       11.68207013       8.96957395      -3.93046852      -0.13976544      -0.24975400      -0.03204870
H       12.90126062       8.49930434      -2.80088711      -0.00124381      -0.15033790      -0.31406626
H       11.92667984       7.21535960      -3.48919215       0.15841832      -0.00789879      -0.57319625
C       13.72027229      19.66431427       3.89077681      -1.90210689       1.19553088      -1.40970153
C       13.41436810       0.88926501       5.33221289      -0.17181697       2.77812332      -1.39318549
O       13.55972542      -0.00810372       6.21565775       0.39642949      -2.13831343       2.15227303
O       12.99451839       2.03512194       5.65997323       0.34611951      -0.85842335      -0.61916270
H       20.33802076       3.37087444       6.43114249       0.45816086       0.25509848       0.88168471
H       13.51570623      20.47004196       3.10378167       0.67381943      -0.57281688       1.44192042
H       12.95512877      18.94481069       3.57472873       0.17348573      -0.48155789       0.37293860
H       14.65430938       0.03625966       3.70404118       1.10574669      -0.37243186       0.10668041
C       14.00655418      -4.37333248       7.44535035       0.47087770      -0.57809198      -0.22345557
C       14.57131650      -3.02308498       7.05924612      -2.16125805      -0.21698091      -2.53109207
O       15.57949272      -2.53916154       7.59693635       0.63198039       1.01891064       0.21023357
O       13.93770450      -2.47717846       6.03684744       0.84499214       0.27385990       1.22052378
H       13.85927424      -1.04704817       6.03073213      -0.01851853      -0.08603905      -0.24088756
H       14.65219651      -4.74063086       8.24477218      -0.05467386      -0.41311624       0.04348439
H       14.01617612      -5.06761852       6.54009075      -0.09420569       0.79100564       1.09884786
H       12.97821665      -4.28980389       7.83716490       0.17711832       0.00210851      -0.25141018
C       22.06030441      15.64998310      -0.89269838      -1.00191340      -2.68387948       1.16430663
C       21.77287663      15.67228856      -2.31826359      -0.57190240       0.80825863      -0.77367296
O       22.47776878      15.21576446      -3.19592417       1.06960751      -0.51621124      -0.83517461
O       20.60227413      16.27590134      -2.57171309      -0.11520701      -0.48588178       2.04162498
H       20.57666958      16.50572092      -3.50551843      -0.39611707       0.71843215      -1.87504548
H       22.90939600      14.92789787      -0.70886524      -0.87264481       0.79927738       0.23180627
H        1.87676164      15.29730515      -0.50288001       1.65653058       0.34243586       0.29481962
H        3.08312880      16.62225228      -0.49880673       0.26846197       0.98448921       0.45616617
C       20.83683052       9.79306698      10.45353823       1.09656474      -0.72220173       1.17025267
C       21.46356474       8.49923990       9.82101668      -4.44220789       1.79316639       0.01203278
O       22.65809963       8.28895146       9.78713661       4.29354614      -0.44434043       0.48365949
O       20.62458049       7.74195088       9.25718359      -1.46497267      -1.57190633      -0.47080424
H       16.80414635       1.84905033       7.34402159      -0.44351557       0.24520838       1.17681897
H       21.66462008      10.48850913      10.46716179       0.16331892       0.90239004      -0.32432673
H       20.70624487       9.61193685      11.56562664      -0.40506809      -0.01587029      -1.03725904
H       19.90035499      10.18650739       9.98902697       0.76731787      -0.51582494       0.37359515
C       21.99810111      17.38169273       9.35451189       0.03399714       0.46451758      -0.18019297
C       22.82562219      18.05448472      10.38000089       0.50965772       1.41345842       0.44564213
O        4.88534015      17.91906607      10.57597553      -0.87234842      -0.10400587       0.13247757
O       22.02671763      19.01094210      11.01395680       0.69327219      -0.85264296       0.58901632
H       22.45864254      19.43769049      11.85528996       0.40295432       0.00691999      -0.97029700
H       21.20368787      16.87943402       9.86370903      -1.08709280      -0.25122766       0.26766081
H       22.49545789      16.65003740       8.76058705       0.86326804      -0.54759529      -0.43243429
H        2.46058076      18.16380960       8.69170308      -0.40119780      -0.13467696      -0.10146034
C        7.36702382      12.58362275      -0.79748580       0.35663142      -1.91644311       0.24143760
C        8.73873170      12.22715028      -0.25830716       0.15465857       0.67143221       0.64308247
O        8.96183566      11.35215522       0.56941644      -0.30862466      -0.60768921      -0.01061471
O        9.70561575      13.05532502      -0.69694063       1.47871260      -0.69951416      -0.65378066
H       10.66766634      12.59936886      -0.60513459      -1.22370501       0.67527560       0.23749820
H        7.17992890      11.84878740      -1.61553185      -0.02113467       0.44118718       0.42022965
H        7.38774939      13.55749474      -1.19485516      -0.15816104       1.42085049      -0.67500271
H        6.58996859      12.46589173      -0.03579544       0.06837339      -0.01693264       0.05469500
C       11.31344744       4.20862140      -1.79605108       0.48306434      -0.25390257       0.54116430
C        9.91001020       4.33054786      -1.28776641      -0.60618070      -0.00798752      -1.41161332
O        9.35452717       3.70317255      -0.40392272       0.00791217      -0.23663553       0.79890211
O        9.22834002       5.23653764      -2.04621273       1.74220904       0.16677004      -0.58697143
H        8.30666734       5.32905385      -1.78340288      -1.23132745      -0.28661064       0.59241950
H       11.35690094       4.23265627      16.27323777      -0.23287772      -0.21114239      -0.36937157
H       11.91682362       3.35829583      -1.40613209      -0.59679261       0.48855178      -0.04038495
H       11.77011948       5.15372579      -1.51144559       0.50355958       0.27996251       0.14786435
C       16.06436973       7.28893097      10.88451046       1.98005495       0.27413266       1.87221817
C       17.49314039       7.81050668      10.59095865      -1.81007024       0.30992371       1.25829900
O       17.91387039       8.81906730      11.17739878       0.37730189       0.05207312      -0.34506004
O       18.22053184       7.04830975       9.78752176       0.10100769       0.30067848       0.34963073
H       19.17301306       7.48486453       9.74326487       0.29366430      -0.17207262      -0.61803667
H       16.20198188       6.52421075      11.67995568       0.01278407       0.03900079      -0.40602700
H       15.71195557       6.80688907      10.04018931      -1.25880910      -1.09342734      -1.81190449
H       15.35839671       7.96460089      11.37610037       0.19596010       0.50149938      -0.54345093
C       10.95040062      15.57726496      16.65748461       0.39738267       0.89384771      -1.92741253
C       12.39265813      15.71197699      16.09713883       1.20115307       0.20588652       0.20150134
O       13.37969411      16.08003085      16.99874997      -1.27744852      -0.03397072       0.82774461
O       12.72700708      15.55808747      14.92671556      -0.76851508      -0.23459815      -0.29981322
H       12.04954505      14.02484926      10.91617346       0.17745733      -0.50041921      -0.12115199
H       10.83778463      15.90593767      17.65219981       0.25874621       0.49261596       1.60815423
H       10.55530619      14.55918371      16.63064553       0.12764937      -0.14727400      -0.41934955
H       10.29988726      16.28572516      16.05106251       0.59856429      -0.94579542       0.33833334
C       15.63202848       6.67202664      -2.06780751       0.30074589       0.36148247      -0.21535808
C       15.75166298       5.50012281      16.15534861       0.41067501      -0.65535536       0.26298294
O       16.54436111       5.41872657      -3.93821693      -0.44490741      -0.14364157       0.19702567
O       14.89319867       4.47199209      16.48886019       0.08213158       1.60075164       0.48243634
H       14.91357306       3.84242105      15.76144192       0.13561802      -1.25310616      -0.77487977
H       16.18153924       6.54042585      -1.10067416      -0.53004655      -0.28371324      -0.58088147
H       14.55409239       6.83771083      -1.90526139       0.25293209       0.29548178       0.37923696
H       16.11290720       7.53110284      -2.57961906      -0.42565804      -0.26935410       0.23665268
C       16.40037957      14.36021566      -2.88837629      -0.64753843       0.12509557      -2.09706099
C       16.61523968      15.79713473      -3.32048884      -0.58068256      -0.99970190       0.13768815
O       17.60475876      15.95126779      -4.12662324       1.25509756      -0.79264085      -0.96309529
O       15.87190596      16.71596273      16.19413458      -0.82966095       0.69736497       0.29073616
H       14.30014782      16.25536052      16.60247818      -0.41533640      -0.13390646      -0.29612793
H       17.28103416      13.74941165      -3.03104199       0.33771585      -0.25148044      -0.01597320
H       15.54745344      13.92151319      -3.48414204       0.71870279       0.42373782       0.42493907
H       16.07689042      14.38298721      -1.89965045      -0.59557855      -0.19997060       2.06620316
C       10.86492820      16.75628831       6.37709226      -0.00425307       0.53545668      -0.87192437
C       11.15999736      16.37996653       4.98704773       1.80272333      -1.22588387      -1.08776312
O       11.34487954      17.10316222       3.99016231      -0.74302794       1.00249227       0.29626657
O       11.43502786      15.07764015       4.87954761      -0.50723937      -0.37303850      -1.35180606
H       11.58085734      14.85751728       3.84701155      -0.01244537       0.16992961       1.00506393
H       10.02240075      -3.00285546       6.68183612      -0.24767008      -0.00780107       0.66392902
H       10.72271295      17.81034332       6.31187631      -0.79405576       1.01742541       0.50819675
H       11.79394719      -2.50730657       6.92275549       0.14716518      -0.51818507       0.45019419
C       23.67442947       4.00368597      17.69297293       0.33426098       1.54616949       0.69588701
C       24.58457000       5.19961584      -1.17921369      -0.33205124      -0.05190947      -0.19267193
O       25.76258786       5.23989325      -1.52978874       0.81965270      -0.64265584      -0.86354040
O       24.14578865       6.24559759      -0.52975705      -0.78152838       0.90910103       0.76834240
H       23.17811792       6.21919117      -0.06693013      -0.32847884      -0.27777856      -0.13302441
H       24.11304235       3.25309046      18.32487340      -0.00508025      -1.01596332       0.35865272
H       23.75628978       3.74089346      16.65666530       0.09125668      -0.25033830      -0.71130084
H       22.64017669       4.21370417      17.96478845      -0.08242502      -0.16457739       0.12152413
C       13.05350269      -1.07080750       0.94825538       0.43559338      -0.12628674      -2.05384286
C       13.78382685      19.18223290       0.16102109      -1.22889018       1.14345039       0.15160373
O       15.08635478      19.16094895       0.24844589      -0.45707024       1.24460481      -0.96286077
O       13.20546973       1.02131490      -0.40890427       0.93602804      -1.58464338       0.72065813
H       11.72414264       0.82076202      -0.80799693      -0.59714015      -0.23306354       0.15306440
H       13.61728611      -1.25748963       1.85680927      -0.14206951      -0.14987132       0.25493574
H       13.02654930      17.12464941       0.32916428      -0.10338672       1.00139365       0.59587041
H       12.06765694      18.49793021       1.09096253      -0.51618444      -0.43666505       0.38856663
C       16.64437505      20.68104785      16.51297657       0.33952245       0.33933046      -1.36644128
C       16.01604554       1.48609189      15.07895578      -0.86580495       0.78927160       1.59664546
O       14.97100323       2.11573892      14.83277528       0.52581596      -0.12916932      -0.15730114
O       16.60693604       0.78023588      14.12831361      -0.11558379      -0.07649106      -0.30547049
H       17.34544577       0.15105840      14.43948769       0.11542437      -0.18047437       0.02793579
H       17.53906367      20.04484505      16.48335673      -0.07275342      -0.07375478       0.38316667
H       15.89440625      20.26529916      17.24805611       0.76436179       0.89594464      -0.51022993
H       17.04165455      21.75398188      16.64921744      -0.98861006      -1.41768554       0.31136888
C       11.82864416       0.15917452      -3.17519596       1.79082587      -0.36010721       2.08802361
C       10.65094485       0.07265650      -2.26370132      -2.17880940      -0.18678600      -0.72667897
O       10.73246664       0.54835497      -0.99462862       0.78812588      -0.09361242      -0.58656289
O        9.57905698      -0.41187722      -2.68970943       0.67270480       0.39867390       0.92837222
H       10.96005145      -0.17564567       3.83273463      -0.41024975      -0.48507240       0.45819142
H       12.58308640      18.57519932      -2.70593238      -0.47930453       1.27013297      -0.83091176
H       12.23527683      20.33808464      -3.24702009       0.18298772      -0.46211120       0.30758344
H       11.59050860      -0.18639381      15.00968819      -0.52386590      -0.51439960      -1.25433657
C       17.64337754      17.98483535      -0.48115111       0.58065739       0.25209659      -1.53159870
C       17.43556876      17.17001374       0.74428977       0.36874984       0.58411732      -0.57371872
O       18.33964849      16.34592754       1.03913515       1.19511732      -1.48976663       0.59439534
O       16.37907433      17.35360705       1.39741665      -1.34214068      -0.14228371       0.91459147
H       15.40001291      18.31083354       0.67974826       1.25853153      -0.89423309       0.82522878
H       17.54176479      -0.08283446      -0.23092676       0.30881237      -0.74016269      -0.50677392
H       16.83045532      17.67011401      -1.15098488      -0.25377819       0.49530106      -0.03337819
H       18.55038149      17.71246516      -1.11014013      -0.57990424       0.56365280       1.19049532
C       27.97310127      15.80572709       1.76992920      -1.50114523       0.73050789      -0.31234315
C        7.42417943      15.36709966       2.26079854       1.79551852       1.05313897      -0.43278293
O       25.54890602      15.39463084       1.61027832      -1.00365814      -0.26926638      -0.59563973
O        7.51967647      15.00638241       3.52935493      -0.73598523      -0.91272660       0.90953231
H        6.60323947      14.66267734       3.83703764       0.27701443       0.54441646       0.33092284
H       28.41396239      16.44130616       2.54627800       0.18773571      -0.03107784      -0.15045462
H       27.90138785      16.33816469       0.79517380       0.13121093      -0.32447201       0.55224651
H       28.54751102      14.90656809       1.67367201       0.78782747      -0.61421262      -0.19573000
C       18.09041937       5.96433652       6.63050366       0.67896369       3.45651358       1.23358346
C       -2.41625573       6.10425842       6.00771636       1.02693076      -0.47098012       0.73691011
O       -2.90766024       5.08025274       5.57628930      -1.52458426      -0.80192593      -1.09402035
O       16.04767841       7.24508436       6.06050905       0.27196785       0.97577987       0.31158756
H       16.50511601       8.05965549       6.56213397       0.08339187      -0.53830426      -0.47037004
H       18.74838746       5.21204535       6.28051442       0.25129213      -1.02683759      -1.11128006
H       -1.25251808       5.71738101       7.69882189       0.24278965       0.57894185      -0.27526413
H       18.66687278       6.96979545       6.54249369      -0.78182635      -1.46092978       0.60047890
C       11.10241803      13.18848427      12.92903188       0.92552383       0.09755206       2.95059846
C       11.65987245      12.31721869      11.89956783      -0.36160693       1.07493311      -0.63013250
O       11.79637002      11.12867994      12.04211722       0.41657611      -1.98735705      -0.21969103
O       12.01968046      12.97325142      10.77471996       0.35888131       0.28098673      -0.35451290
H        7.76947764      10.86733210      14.38419234       0.15176817       0.05248827       0.07513502
H       10.62374315      14.06951456      12.56139912      -0.64050317       0.61126464      -0.17512368
H       12.00679841      13.57185398      13.48835808      -0.54338635       0.05471297      -0.37164547
H       10.56492634      12.65349687      13.75397268      -0.03473189       0.24779588      -0.92203450
C       18.13081060      13.43869096       0.12786483       0.74307792      -1.45107143       0.62405100
C       18.32850130      13.20500148       1.68674588       0.26725420       0.65265354      -0.94421810
O       18.53105584      12.12042091       2.24613769      -0.10989656      -0.52007485      -0.57731173
O       18.28154199      14.29704249       2.43209328      -0.22963416       0.55529816      -0.53876539
H       18.17615425      15.19839806       1.78903180       0.12597858       0.28943178       0.46360578
H       17.89480788      12.49239975      -0.38772754       0.57128464      -0.13210128       0.25364334
H       18.97259470      13.95526590      -0.40946299      -0.63589643      -0.32681910       0.73464383
H       17.22310815      13.97412113      -0.01528602      -0.80784982       1.17500066       0.01826902
C       14.13233842      15.14582765       2.95241729      -0.26386098      -0.96941755      -1.39047991
C       13.10286407      14.42637370       2.06434496       0.46549420       0.69394342       2.50233404
O       11.88969090      14.31417531       2.38856454       1.17375599       0.05049852      -0.86979460
O       13.70468947      13.78951755       1.07978401      -0.88089880      -0.09246774      -0.24632078
H       12.99087916      13.17544045       0.74220140       0.04097280      -0.71872454      -1.18108418
H       14.44200006      14.40687581       3.67453443       0.02311712      -0.61369026       0.67726319
H       13.64788968      15.92216711       3.49208300      -0.07699602       1.09426467       0.47693149
H       15.06010316      15.38259885       2.41131244      -0.36069412       0.54778177      -0.04634114
C       21.56772704       3.89907887       2.84998286       0.36115502      -0.66101988      -1.24856442
C       21.30304678       4.28180185       4.28974099      -0.66141034      -0.31170861      -0.52520675
O       20.26296715       3.83939751       4.88727564      -0.01825899      -0.42537738       0.27457962
O       22.16734628       5.03043884       4.82492288       1.16586623       0.67945802       0.77017043
H       23.59201011       4.96207234       4.01835259      -0.04465148      -0.00083066       0.01432776
H       22.20535974       2.96802595       2.86938405       0.08315674       0.91395159      -0.00367360
H       22.02020553       4.71792946       2.17435021      -0.59591877      -1.25652414       1.17045615
H       20.69838149       3.46479282       2.34839650      -0.44217236       0.38050008      -0.00546979
C       15.99793796      12.88506208      13.04448683      -1.71032436       1.96084086       1.30171754
C       16.83734062      11.93728707      12.39842753       1.32603963      -2.16531557      -0.22731315
O       17.89836863      12.23365677      11.88229518       0.81286278       0.14246184      -0.60217970
O       16.37164910      10.65414721      12.42939508      -0.76215613       0.09866476       0.02664395
H       16.91350239      10.06539822      11.84269168       0.59508497      -0.28318840      -0.00427566
H       15.38952784      13.32958298      12.24270756      -0.31058793       0.12074751       0.21661233
H       16.62360760      13.68059916      13.43879671       0.20994271       0.36010693      -0.04006975
H       15.35821327      12.56226006      13.88400123       0.00245484      -0.40526155      -0.55920692
C       20.79033420       6.66610047      -1.42579751      -0.56728208       1.73705192      -1.60139252
C       20.98775159       6.93174793       0.01335015      -1.11240002       0.13657407       0.86867922
O       21.95494800       6.35697291       0.65045262       0.07254052       0.62770845       0.03902485
O       20.08426301       7.67200102       0.54119707       0.73306248      -0.25371557       0.24789601
H       20.46990312       8.27206536       1.93666040       0.07293635      -0.84687670      -1.50594716
H       21.12271427       7.55742752      17.09951791      -0.80294821      -0.46846431       0.77209471
H       19.72963799       6.41078853      -1.67602748       0.79080090       0.23462972       0.20680634
H       21.46528561       5.95025912      17.38205823       0.92276399      -1.86074612      -0.63821917
C        7.89191806      13.43304946       9.05210569       1.50746183      -1.60164821       0.45653589
C        8.15545242      14.49870951       8.02726249      -0.69771326      -1.39700319      -0.22722341
O        8.54342650      14.30208203       6.88064310       0.32958024       0.20346974      -0.05396610
O        7.77066108      15.64816238       8.52962413      -0.06585918       2.58037174      -0.32839720
H        7.74601770      16.39843586       7.80532059      -0.31185080      -0.46444893       0.53144422
H        6.89176956      13.45610817       9.46892334      -0.32771825       0.09629150      -0.02633461
H        8.60062949      13.51772143       9.90192138      -0.22439854       0.40258783      -0.09773945
H        8.14588738      12.41378452       8.68742136      -0.48873038       0.48517030      -0.20221058
C       21.79644454       8.24418103       6.20788273       0.39050990      -0.62017823       0.22398549
N       21.29527308       8.67546770       4.91003951       1.26417738      -1.17691799       0.32502905
C       20.67771971       9.85831586       4.66491799      -1.34067690       0.54175832      -0.18361135
C       20.23254539       9.79635719       3.34985998       0.87545311       0.00903076       0.55635131
N       20.78031177       8.64367539       2.84987035      -0.68359623      -0.07155049       0.21211674
C       21.41922218       7.91771246       3.77884811      -1.26513661       1.55406457       0.16017539
H       20.94396537       8.08394398       6.91901678       0.83023232       0.84528592      -0.15619554
H       22.68873003       8.86945773       6.50496046      -1.18987863      -0.56105164       0.21331456
H       22.14457981       7.22142970       6.02348820       0.30628727       0.02269782       0.17158674
H       20.54560901      10.60477590       5.46488534       0.12241413      -0.16792556      -0.50712849
H       19.65791409      10.46573900       2.71124247       0.08829447      -0.03255806       0.28217698
H       21.74953120       6.89456122       3.64930266       0.19765738       0.11382885       0.31375583
C       14.52940713      18.12059049      12.33651941      -0.60066793       0.68694672      -1.39265052
N       13.41838181      17.39039461      11.61311991       1.84460860       3.56136305       1.63382397
C       12.08821313      17.75517058      11.63274403       0.10054627      -0.06353935      -0.38924708
C       11.48019683      -2.53413957      11.19913149      -2.97336524      -1.27449833       0.39199848
N       12.37888069      -3.58700243      11.08217986      -0.93778096       0.18578618      -0.92848996
C       13.55669520      16.12722768      11.30528911      -0.58256006      -1.38936041      -0.27638345
H       15.42603666      18.28356608      11.67255476      -0.82747975      -0.51468869       0.56545628
H       14.72678658      17.48454740      13.19192825       0.42650357       0.36625735       0.52403890
H       14.14368544      19.13996860      12.57372999       0.31248754      -0.72448158       0.25660589
H       11.66387673      18.71342187      11.94086768       0.50257976      -0.28387580      -0.12069453
H       10.35288976      -2.68516820      11.12551887       1.68279215       0.08316792      -0.09963354
H       14.50667039      15.66919500      11.30351132       0.88991214      -0.70216627      -0.09814658
C       18.75247880       7.34911880      14.28525008      -0.52290532      -1.57106928      -2.31560186
N       19.84316426       6.38057195      14.28566139       0.09571291      -0.30428882       1.18293631
C       19.80603937       4.99856730      14.56550250      -2.46409563       0.76395299       0.13117325
C       21.00346571       4.51043099      14.23619554       2.46855194       1.11464295      -1.80561110