640
Lattice="18.700606 0.0 0.0 0.0 18.700606 0.0 0.0 0.0 18.700606" Properties=species:S:1:pos:R:3:forces:R:3 energy=-80128.68707283695 pbc="T T T"
C       13.49385102       1.19795211      13.28214106      -1.34042461       0.06441003      -2.57060172
C       12.37187714       2.05408206      13.72612611       0.24346702       1.77016347      -0.33456655
O       12.28127327       3.26367234      13.38712921      -0.12943562      -0.01473543       0.30116934
O       11.56198997       1.44482591      14.51673536      -0.61138794      -0.95048093       1.12016956
H       10.86221906       2.01535469      15.07494686      -0.55956976       0.18068610      -0.24986228
H       12.92725965       0.32492006      12.77485909       1.41857593       0.99288445       0.29724785
H       13.94968222       0.85382365      14.16653992       1.11683862      -0.70498013       1.10477237
H       14.13358881       1.86115798      12.63763072      -0.26750701      -1.20561879       0.39524381
C       12.66461384      12.86622117       5.13336297      -0.05473420      -0.48987225      -0.55216603
C       12.04694081      -4.55665623       4.59074933       0.12145430      -1.04557735       1.56533766
O       11.80144141      -3.67054982       5.43716817      -0.01415232       0.32779445      -1.18679425
O       11.81425629      -4.47870230       3.30409073      -0.49935207       0.82267700      -0.35555648
H       11.73885693      13.29370371       2.70703054       0.15369888      -0.13774958      -0.03684130
H       13.64153409      13.19400022       5.50759014       0.30627010      -0.33457583      -0.08277248
H       12.77834100      12.00103573       4.39731086      -0.27442255       1.14747731       1.01240011
H       12.09190880      12.59144096       6.03322807       0.01838045      -0.29906502      -0.30069168
C       13.39901252       9.14698665      -4.65247315       2.17749132       0.36980127       1.99445456
C       12.06506025       9.60557065      -4.25137776      -1.39049464      -0.61869781       1.05025278
O       11.31505481       9.00576895      -3.45218865       0.77968840       0.44633626      -0.44657266
O       11.71869140      10.71286184      -4.87487480      -0.70596525       1.73862778      -0.03626417
H       10.96895508      11.21545968      -4.31456568      -0.27728881      -0.39889667      -0.20161822
H       13.28356622       8.43441664      -5.43215074       0.31762416      -0.59041305      -1.12177646
H       13.80613694       8.61539079      -3.77101985      -0.05008980      -0.30634700      -0.27407688
H       14.17698051       9.95759929      -4.79739982      -1.16524325      -0.70338083      -0.51295323
C       14.81905511       3.95546918      10.82969006      -1.13970716       2.23426831      -1.20322976
C       15.67366225       4.91265904       9.97511678       1.35223159       0.87447624      -1.69343201
O       16.91879096       4.79432681       9.79103204      -1.67250514      -0.24868665       0.84040810
O       15.07756395       5.93742126       9.29623757      -0.67113902      -1.15080492       0.95881141
H       13.92455902       5.85080488       9.32400232       1.30388205       0.16133363       0.28761131
H       14.29497326       3.20826561      10.24920198       0.01216595      -0.33893060      -0.48224256
H       14.03593033       4.48163648      11.39828024       0.02811582       0.16005575      -0.33049842
H       15.39428352       3.52840101      11.56524445       1.85501589      -1.41678039       1.64049109
C        8.42757708      -8.59353079       7.54013539      -1.00382591      -0.11213205      -2.12953847
C        9.51755015      -7.56081056       7.78335022      -0.62816856       0.41667875      -0.39215513
O       10.65120862      11.12140196       7.28601189      -0.14372944      -0.82732250       0.04995026
O        9.16183451      -6.50313801       8.49741091       0.19015285       0.40963714       0.49488822
H        8.15675159      -6.26972166       8.90125295      -0.20268938      -0.25817997      -0.19008236
H        7.54655744      -8.47198621       8.16347902      -0.10639629       0.27236735       0.44132169
H        8.70280991      -9.64410074       7.58190120       0.65936074      -0.21588111       0.24118098
H        7.99713976      -8.53207554       6.45148225       0.95397791       0.34759969       1.60824738
C        3.12845233      -8.05696694       8.35578102       0.69183570      -1.31339561       0.10764187
C        1.99813156      -7.84220925       9.29958843      -0.86017821      -1.49637552      -1.65068830
O       19.52646541      -8.25579859       8.74173561      -0.01134989      -0.13613483       0.34449462
O        2.01470509      -7.45366626      10.43827698       0.97597279       1.17515507       1.71276174
H       20.16311347      -6.94761197      14.61207109      -0.10427419      -0.10474802      -0.39670179
H        2.78561221      -7.95912603       7.35416303      -0.48424534       0.40766769      -1.16628041
H        3.50906536      -9.11876486       8.36774264      -0.38499154       0.71693024       0.52663575
H        3.97447288      -7.41378813       8.50656112       0.52277807       0.49098007       0.30725577
C        7.75258626       2.70079015      16.95430379      -1.72088788      -0.64846417      -1.74229285
C        8.99609020       2.04057548      16.50454302       1.36150014       0.04237505       0.37364138
O        9.75831867       2.68205181      15.71154392      -0.15345538       0.02465255      -0.24969849
O        9.34532256       0.91488620      17.00998610      -0.43016314      -0.79043868       0.89791380
H        8.68928283       0.53646995      18.27368676      -0.50166387      -0.15005518       0.38510851
H        6.92402310       1.95457127      17.05070621       0.39879999       0.54570978       0.00853838
H        7.48763934       3.45663056      -2.50171864      -0.17064721      -0.13432814       0.19960855
H        7.87370641       3.19841242      17.87208483       0.34139471       0.65344984       1.65039837
C        6.52356797       5.83767360       5.09152626      -0.59577191      -0.47735118      -0.36822656
C        6.31704280       7.29866178       5.45171313       0.09993253      -0.44113427       0.23023483
O        5.33967053       7.71745802       6.10404809      -0.37328204      -0.33768868       0.10578116
O        7.23695075       8.17504531       5.13546412       0.02671381       0.70477256      -0.56295271
H        7.91014040       7.87473762       4.39098696       0.57456576      -0.47986501       0.28548605
H        5.81417319       5.24614551       5.68706049      -0.08343608       0.01209680      -0.11856424
H        7.51788284       5.41240933       5.29986345       0.07192325       0.55003195      -0.06836014
H        6.28806124       5.61757326       4.01388361       0.23945752       0.31991204       0.74950047
C       10.01681277       2.59330790      10.58216117      -0.27248355       0.45226780      -0.79933475
C        8.95736505       2.60837879      11.61017815      -0.77714571      -2.54634331       2.56451151
O        8.73393494       1.71691070      12.48437391       1.05820831       0.52677874      -1.73532049
O        8.23633341       3.68279838      11.65061785      -0.73084391       2.36453588      -0.58822279
H        7.63339473       3.71107424      12.55358173       0.19321945      -0.11639444       0.14395534
H       10.60910202       1.72696329      10.64975816       1.02705375      -1.12017868       0.49183206
H       10.60173391       3.48453804      10.74307444       0.57604620       0.47432416      -0.03387564
H        9.68349336       2.60464441       9.53578619      -0.47669395       0.30385573       0.17245846
C       16.01648062      -7.67044285      12.24514909      -0.27201070      -1.26415228       0.13131817
C       16.98946352      -7.16215132      11.16752712      -0.92640504      -1.51664389       1.19867008
O       17.24027374      -5.92763941      11.13747972       0.02054790       1.41246651      -0.13065861
O       17.48835810      -8.02104182      10.40943653       0.38439701      -0.83142999      -0.76215670
H       18.84626876      -8.16879890       9.49891284      -0.33380017       0.22927049      -0.59378494
H       15.40840434      10.17758860      11.85231813       0.24816273       0.62786560      -0.16469204
H       15.34063136      11.80277381      12.61149801      -0.00824626       0.15931366       0.19487640
H       16.51564377      -8.18352752      13.11293216       0.10839160       0.77443013      -0.53726494
C       12.01148405      -1.87232507      -3.29272392      -0.03652355       0.95423412       0.10187996
C       11.53044362      -2.93285031      -4.29060409      -1.32809125      -1.39035037       1.16531902
O       10.26095137      -3.12659218      14.28729503       2.82473193       0.13230586      -0.51255187
O       12.50713087      -3.66061355      -4.84380220      -0.71621997       0.79185462       0.42048683
H       12.47565032      -4.74911679      12.90923543      -0.83266157      -0.45174498      -0.23493104
H       11.23877926      -1.43726975      -2.62708066      -0.23706424      -0.54765404      -0.45244620
H       12.28519328      -1.01081499      -3.90774914       0.21293209       0.26542999      -0.15806979
H       12.88616491      -2.05468755      -2.64033752      -0.13886986      -0.59672734      -0.68219736
C       15.63076253      -1.85997170      13.02188608       1.78450831       1.54401254      -1.38587808
C       16.35156678      -2.95196646      12.23874568      -1.84151816      -0.19830752       0.52423078
O       17.48114997      -2.84178815      11.78495794       0.03596065      -0.36260531       0.01659182
O       15.53967590      -4.07460195      12.17729789       1.02849438       0.71910975      -0.12186974
H       16.09660262      -4.83623843      11.83793669       0.29874643       0.01095695      -0.27246113
H       15.84026765      -2.06166914      14.06040969      -0.14144602       0.06068394       0.72592523
H       14.57966447      -1.74998279      12.84477022      -0.88604377      -0.51496149      -0.02828008
H       16.07946798      -0.85432778      12.72163988      -0.26190663      -1.13915540       0.54515617
C       16.13351278       6.22870120      -5.25305589       0.24012882       2.61513333      -0.45589966
C       16.09104702       5.31505166      -4.11797475       2.40645717      -0.76784022       3.21377617
O       15.44029000       4.31298868      -3.94538512      -0.68067922      -0.33689274      -0.85612581
O       17.08085611       5.58099980      -3.04445489      -1.43191968      -0.24434569      -1.65672120
H       16.91567798       6.52869146      -2.81470858       0.23220243       0.81043932       0.34037612
H       16.65802728       5.80142478      12.59027319      -0.22450140      -0.42818130      -0.21769117
H       16.68035159       7.22290357      -5.07902158      -0.63389047      -1.34262541       0.25865627
H       15.09258048       6.49843557      -5.46873739       0.00148251      -0.15027304      -0.53183227
C        1.38061008      -0.90499497      13.31247445       2.46757140       0.31955699      -2.56863094
C        2.48982568      -1.76683265      -4.82950117       0.79224349      -1.00047264       2.17329698
O        3.27362124      -2.50707472      -5.54832444      -1.14533700       0.80814745      -0.63758099
O        2.64234796      -1.67871902      -3.54470385      -0.12215957      -0.02941985      -0.85671814
H        4.26641228      -2.25155099      -3.07142856       0.90178291       1.03710930      -0.42281624
H        0.55207051      -0.65179622      13.87511740      -1.31793965       0.45944118       1.87169929
H        0.98545234      -1.21304759      12.37098556      -0.36051078      -1.23051404      -0.90117298
H        1.87651843       0.00584661      12.92581070      -0.01327134       0.29716967       0.66511726
C       12.18387589       6.74699799      11.35433572       0.18806862      -3.37665484       0.62742351
C       11.78044858       6.24655273       9.96781816       0.29610248      -0.61850659      -0.06944250
O       12.68646007       5.76469886       9.16072213      -2.03906533       0.35214561       0.74197629
O       10.55751879       6.35280468       9.62101171       0.48660727      -0.15407316      -0.47347287
H        9.90125687       7.43884579      10.29933880       0.24105358      -0.04065765       0.56319081
H       11.41534203       7.16076873      11.95671969      -1.01988939       0.35807695       0.30695687
H       12.88084073       7.46934129      11.14686188       2.22829053       2.06252817      -0.14825710
H       12.68228936       5.94488659      12.02365130      -0.59673285       0.91256966      -1.26401656
C        4.67983030      -3.34412156       0.64990981       1.55260989      -0.16021070       2.17272291
C        4.26712513      -4.63331934       0.10059069      -1.03521362      -1.44565042       1.26818096
O        3.50222613      -5.32967785       1.01024598       0.73781974       0.81515940      -0.92348135
O        4.48604155      -5.05054099      -1.02955148       0.27757255      -0.08511399      -0.54122126
H        3.95054190      -3.78204327      -5.26160362       0.22711272      -0.31974191       0.71381787
H        5.69569846      -3.03880768       0.38642189      -0.06751596      -0.09457409      -0.38404962
H        4.64143070      -3.35457987       1.77395866      -0.04518583      -0.14451841      -0.89869587
H        3.98634330      -2.61700601       0.34472162      -0.99091397       1.38287517      -0.60348283
C       15.01926023      -6.44900326       2.45625091      -2.56582959       1.73519004       0.55551088
C       15.28188552      -7.71136268       1.78606943      -0.48746449      -2.11875220       0.45187746
O       16.28718600      -7.97859999       1.14085457       1.36994978       0.55304262      -1.07561628
O       14.39728465      10.03906864       2.06113528      -0.91943235      -0.88831506      -0.80178347
H       14.47229216       9.13587199       1.19639761       0.25348170       0.46450247       0.16319748
H       15.87579210      -5.88306850       2.67523260       1.51727299       0.86175732       0.07581910
H       14.48984553      -6.58637318       3.41709925       0.27302587      -0.22274746      -0.31139342
H       14.29638376      -5.78148912       1.89421924       0.79017926      -0.69762069       0.19101490
C       18.45105427      -1.83123268       7.06503089       1.08756904      -0.90413895      -1.87389059
C       19.06873891      -0.77380935       6.14018642      -0.04698465       0.49946765      -0.56421858
O       18.68719484      -0.50873007       4.99495090      -1.33441491      -0.86193841      -0.18770923
O       20.01562761      -0.02247687       6.63885773       0.98944302       0.49358239       1.05937453
H       20.10652384       0.89007160       6.06934253       0.30535661      -0.24285549       0.32851671
H       17.61863392      -1.33008816       7.49375923      -1.26166475       0.32431926       0.49772524
H       19.08188474      -2.18169793       7.89729925       0.07910532       0.12279009      -0.40149746
H       18.11750509      -2.68166691       6.38913393       0.18269920       0.84285576       1.07051079
C        8.28369508      -4.09390810      10.36361496      -1.75047808       0.83656109       1.20552883
C        6.93781211      -4.59591512       9.86923456       1.17933351      -1.68037226      -0.40153541
O        6.95336724      -5.79443490       9.34820819      -0.33318590       0.17743680      -0.06394960
O        5.89592551      -3.92940507      10.01001089      -0.82750437       0.70619580       0.13070355
H        6.14393921      -2.49096203      10.78191971      -0.29549863      -0.93187399      -0.62442662
H        8.23571841      -4.04361209      11.47566774       0.37481751      -0.56237030      -0.35496051
H        8.30995222      -3.05168861      10.13777477       0.38568131       1.06652780      -0.59476530
H        9.10345223      -4.61417761       9.94381640       0.92153289      -0.59346023      -0.13059940
C       17.57933236      -0.05979150      -2.73664966       0.24749339      -1.72050510       2.04888307
C       16.69601533      -0.86523267      -1.76860064      -1.08042113      -0.99885749       1.12577352
O       17.14629171      -1.63106789      -0.87025553       0.21688767       0.93051589      -1.07435487
O       15.36392777      -0.69819600      -1.91811937       1.52107616       0.61557334      -0.99469082
H       14.78812070      -1.21531042      -1.14054603       0.14204818      -0.30720839       0.19432334
H       18.16550025       0.59106530      16.66732899      -0.78120010       0.20178404      -0.93762769
H       16.91193354       0.31483565      15.19365130       0.47346625       0.66798629      -0.21880736
H       18.36547600      -0.77190132      -3.06947686      -0.48248616       0.34932670      -0.30882573
C        4.72188261      -0.78805536       9.89513021      -1.29282796      -0.49114664      -0.28306500
C        5.63207229      -0.62280154      11.07593835       0.79130721      -0.83801623       0.48693508
O        6.33580288      -1.74565748      11.40244517       0.13509568       1.58031194       0.67251051
O        5.68228895       0.38144583      11.80111833      -0.17404438      -0.74443596      -0.70811223
H       -0.60062323      -5.56820736       9.88459214       0.28137821       0.95901839      -0.05953907
H        4.52320826       0.20957483       9.50329625      -0.55699487       0.16688759       0.11433632
H        3.80389883      -1.27051742      10.42898326       1.05524659       0.81659998      -1.25247740
H        5.01552353      -1.38804014       8.97279254       0.09626458       0.19489466       1.50795797
C       16.63978945      10.53547749      -2.07590987      -3.04541249      -1.34732231       2.11893959
C       17.07742415       9.06977708      -1.99145687      -1.34566308       0.66058772       0.25931129
O       16.33058658       8.07535758      -2.25120618       1.15028163       1.01061520      -0.27646889
O       18.28445402       9.02357820      -1.55973764       0.77118875      -1.98888007      -0.28063388
H       18.76256840      10.01946705      -1.18988838       0.13529938      -0.06357795       0.24962279
H       17.13251675      10.97697414      -2.86633698       0.95596500       1.22472743      -2.14214293
H       16.90333670      11.07620235      -1.14545550       0.09548576      -0.40187041      -0.27754829
H       15.51616918      10.59524320      -2.13179534       0.92729796       0.10007305      -0.40733490
C        5.95702260       2.25636755       2.12582605       1.06461735      -3.76195837      -0.00955910
C        7.24001356       2.76339487       2.71357689      -1.39059415      -0.15086175      -0.67947610
O        7.60895332       3.86243428       2.33144090       1.37241868       1.22748957       0.10405540
O        7.79001671       1.97587147       3.61861758       0.65045368      -0.38982178       0.88626616
H        8.57794411       2.39559851       4.19475365      -0.21552169       0.20101895      -0.37829300
H        5.82690506       2.50575346       1.10050064      -0.03117461       0.52431576      -0.96575389
H        5.14571124       2.54496264       2.68998491      -1.99669619       1.55194809       1.44202138
H        5.79536670       1.12650571       2.21324503       0.74531228       1.09491628      -0.26758441
C        5.56901219      -0.27214040       5.76793966      -1.40727914       0.72735799      -1.50179467
C        5.69149374      -1.79012202       5.80634480       2.61956784       3.43208694       0.43637820
O        6.80084447      -2.22818103       6.14151004      -0.09883733      -0.93187030       0.26095710
O        4.70945566      -2.42582947       5.30095631      -1.51906321      -2.07768008      -1.18512783
H        5.03674312      -3.41664967       5.11542658      -0.47325875      -0.40375395       0.56966853
H        6.18103239       0.19423125       6.53219486      -0.10997717       0.17751829       0.34820456
H        4.52210310       0.16311841       5.64980979       0.93218187      -0.68684732       0.82404223
H        5.98907833       0.06708713       4.78010932       0.17692230      -0.44698754       0.55295041
C       20.82238999       2.13088760       3.61964383       0.31418646      -1.11877930      -0.07531806
C       20.93074403       2.97012028       4.84555889      -0.95344676      -3.47105404       1.59135867
O       20.36919543       2.31502465       5.85352766       0.44331047       1.80372749      -0.08923220
O       21.48563943       4.07026208       4.94841597       0.48143162       1.64846586       0.32635421
H       22.18789569       4.64671763       3.87084184       0.10313691      -0.13933995      -0.03855477
H       20.61773975       1.09885747       4.03964229       0.89324713       0.69409171      -1.05097261
H       21.59730524       2.22288746       2.82180316      -0.54837826      -0.11360962       0.56733951
H       19.84148395       2.34922664       3.24211242      -0.65295691       0.41834555      -0.92565385
C        4.64077505       7.01565163       1.83380660      -0.64994251       0.62845148       1.16911971
C       22.40628536       6.34945397       2.90849547       0.69036902       0.65883225      -0.99656719
O       22.81929061       5.08813060       3.11759287      -0.97595710       0.59027447       0.52860595
O       21.40393984       6.93848487       3.36978465       1.11555622      -1.00353813      -0.12876054
H       22.51545854       7.03899124       6.48719525      -0.04114201       0.03107631      -0.41548591
H        4.28311292       8.09910570       1.82540348       0.49664004      -1.36219351      -0.73786974
H        4.51308841       6.38173991       0.91982851      -0.03358215       0.93783490       0.32595513
H        5.72976088       7.00285760       2.10846562      -0.83523829      -0.15872635      -0.01648584
C       21.08137419       0.89520608      -0.93745929      -0.46758109       2.04377368       0.81075635
C       22.48524709       0.53988516      -0.71192799       1.63081762       0.32650935      -1.13081802
O        4.74895504       0.83691627      -1.47427970      -1.35107846      -0.56466223       1.07719608
O       22.69234563      -0.12510384       0.40611801       0.62591741      -0.46327108       1.67183181
H       21.87483281      -0.26940557       1.09013470       0.12906145      -0.44130975      -1.16159109
H       21.04137905       2.01101700      -1.02069480      -0.09325382      -0.59149755      -0.32748267
H       20.49496095       0.68816937      -0.04776292      -0.42840316      -0.19127380       0.06259556
H       20.64475611       0.43403791      -1.78948825      -0.27758792      -0.50879352      -1.02917794
C        1.32549177       9.09369974       0.88605565      -3.03912874      -0.66096999       1.04987345
C        1.52691599      10.37492985       0.21059484       1.73974612       1.57938093      -0.13779169
O        0.77093762      10.87504625      -0.70929159       0.00126583       0.16870936       0.07446305
O        2.57654374      10.98198870       0.60625628      -0.07459128       0.36137373      -0.23445791
H        3.16689141      12.52538432       0.57438967      -0.40597915      -0.66022051       0.18131929
H        0.68733138       9.26881679       1.81503835       1.29908135       0.09771029      -0.60980250
H        2.24101494       8.60816892       1.09307190       0.99838772      -0.43891429       0.56385955
H        0.64570770       8.41154632       0.38866280       0.03826861      -0.20456451      -0.74749011
C        8.74568682      -4.68578710       5.21879356      -0.12604791      -1.86803417       1.65179564
C        8.41703647      -5.58689855       4.06740942       0.53620063       0.23488005       0.27681542
O        8.15615039      -6.80901119       4.13232209       0.19059064       0.78263387       0.07978516
O        8.47328152      -4.91065365       2.88769748      -0.83086843      -1.86169200      -0.27564375
H        8.12138401      -5.64439223       2.26092711       0.05009745       1.04330124      -0.24670007
H        9.05991720      -5.30166060       6.15279840      -0.66201328       1.00267799      -1.51570301
H        7.86378207      -4.07011016       5.44588732      -0.08806604      -0.03806016       0.18556901
H        9.54058638      -4.01507362       4.96423682       0.61584476       0.43445601      -0.22176758
C       15.81686343      -4.90615963      -1.55481009      -2.23797411       0.82616121       0.06831197
C       14.47644831      -4.64041617      -2.32380547       1.07512160       0.51470558      -0.92291017
O       13.31060986      -4.71841254      -1.92671630       0.77902334      -0.16275961       0.36085936
O       14.77843891      -4.21727574      -3.59472294      -0.67047650       0.04880606       0.67275160
H       13.89926625      -3.89437291      -4.03890103       0.26351174      -0.33574662       0.06162159
H       16.04792674      -3.95421832      -1.00454673       0.30425762      -0.64817707      -0.69499319
H       16.54139597      -5.29194140      -2.25978284       0.51943541       0.35804878      -0.06328905
H       15.59637892      -5.65829560      -0.81926617       0.01953934      -0.54766282       0.64691212
C        9.85586886       5.72183606      -4.06128753       0.86929875       1.90705983       1.72123343
C       10.82029079       5.52263248      -2.88750635       0.18827102       0.20496279      -0.62892865
O       10.64982164       6.00660734      -1.77630428      -0.28975441       0.13137658       0.23348053
O       11.90454858       4.73861133      -3.08746404       0.35304709      -0.16427668      -0.12496783
H       11.96787802       4.24347327      -3.97174346      -0.34620850       0.24582825      -0.06646398
H        9.22377034       4.89724419      -3.87435088      -1.34592474      -1.20313353      -0.51592886
H       10.35915953       5.69782852      13.68835283       0.07488405      -0.21942863      -0.54183070
H        9.33079895       6.70140112      -3.87551774       0.40226676      -0.94959547      -0.32658882
C        6.01437097      -8.58771897       0.28756499      -1.89688897       0.02572292       0.97726080
C        6.70953539      -7.72554375       1.26175887       1.66988699       1.23023563      -0.56955472
O        7.04798092      -6.52019565       1.04923807      -0.64190497      -1.39969719       0.63672407
O        7.07225832      -8.42519135       2.31725378      -0.05222219      -0.24281638       1.76077098
H        7.39258452      -7.85674123       3.10660062       0.24594284       0.21140480      -0.75155597
H        5.12063125      -7.99133402       0.08353346      -0.69911982      -0.13805119      -0.18592585
H        5.67295112      -9.58024103       0.72867918       0.84668765       1.20210166      -0.93083884
H        6.50266886      -8.55957893      -0.65737635       0.75283472      -0.57683098      -0.91205967
C       21.77173801      -4.58749549       7.26073414       1.65342510       1.98654106       0.53625617
N       20.77060792      -4.50097802       8.29067643      -2.55263171      -1.49300462       0.43880781
C       20.85131686      -3.97429630       9.57814524       1.72010596       0.82248531      -2.30041684
C       19.69870899      -4.12985178      10.18054585      -2.53972757      -1.64850872       2.16240334
N       18.88709403      -4.95280310       9.41577873       1.08114416       0.25330685      -2.15424159
C       19.53285549      -5.10878598       8.19749598      -0.00097996       0.12850148       1.99451238
H       21.48160620      -3.96662379       6.40343501       0.02168750      -0.34534345       0.00477480
H       22.04663059      -5.59284833       7.00623146      -0.29060925      -0.62171389      -0.25831485
H       22.70357395      -4.11408084       7.68774428      -0.74198747      -0.38487890      -0.41461851
H       21.67744489      -3.40092223       9.85685857       1.31293637       0.71826897       0.43353584
H        0.68477744      -3.87446967      11.18294172       0.07929556       0.11693037      -0.02418508
H       19.15307835      -5.69803300       7.36865055       0.25477653       0.01667355      -0.13035501
C       10.04713604       9.39911376       0.10340002      -0.27575795       0.56302928       4.06871625
N       10.82818415      10.54361979       0.59516942      -0.80882622      -1.71161185      -0.40518978
C       11.65457421      11.20464210      -0.24402643       0.65316176       1.34602160      -0.57312352
C       12.08861812      12.30558483       0.43326041       0.03898955       0.13648816       1.46601903
N       11.56193751      12.25885077       1.72968047       0.10298586       0.01986336      -0.51587352
C       10.78614364      11.16376563       1.78975706       0.30671829       1.15083924       0.76380236
H       10.68587531       8.69678564      -0.32906737       1.04237951      -1.58340193      -0.48933519
H        9.40144260       9.76292987      -0.60369707      -1.88592202       0.92532715      -1.94445361
H        9.45184848       9.04631319       0.99966195       0.62773302      -0.13724631      -1.13059189
H       11.76286166      11.01061511      -1.29719421      -0.03501671      -0.50837104      -0.03977338
H       12.74337086      13.10182308       0.12742578       0.09586684       0.13062039      -0.21472462
H       10.23056960      10.91241647       2.70342512       0.12204459      -0.27484269      -0.81833119
C        9.55209439      -4.24836770      -0.75933094       0.58841959      -0.84944145      -0.18777928
N        9.44348747      -5.40824803      -1.60561859       1.23275031      -0.39845711      -1.04437916
C        8.32790682      -6.17264038      -1.78794473      -0.46415869       0.50166918       1.24070745
C        8.62609424      -6.99764548      -2.80020405      -0.28481916      -1.86751927      -2.47225827