640
Lattice="18.700606 0.0 0.0 0.0 18.700606 0.0 0.0 0.0 18.700606" Properties=species:S:1:pos:R:3:momenta:R:3:forces:R:3 energy=-80127.3046875 stress="-0.024733128026127815 0.0007273067021742463 0.002918215235695243 0.0007273067021742463 -0.021385181695222855 0.000437266833614558 0.002918215235695243 0.000437266833614558 -0.02447051927447319" pbc="T T T"
C        3.38714843       8.85140541      13.00482756      -0.03734641      -1.54696549      -0.45784821       0.07721108       1.98913980       0.03819055
C        4.57630900       8.03665003      12.77141210      -0.06470934      -0.58126662       0.18887289      -0.27157086       1.98164690      -2.44797039
O        4.79026937       6.98137855      13.28499971       0.13191551      -0.71211063       0.96413122       1.39039397      -2.01193714       0.90816993
O        5.34749002       8.66767760      11.81547266      -0.61721467      -0.42368649      -0.11588696      -0.18233950      -0.35112607       0.51377439
H        3.67377951       9.90000891      12.71651188      -0.05032548       0.04910222      -0.11497321      -0.34779200      -0.58282632       0.85080516
H        3.20981049       8.67757535      14.06509609       0.11601005       0.18665689      -0.47685397      -0.99944335       0.51277709       0.17753845
H        2.54537942       8.66206164      12.32739211       0.35221685       0.26383187       0.07036593      -0.11787361      -0.70860404       0.26738769
C       14.62087602      17.99752255      10.52494124      -0.59857088       0.52461188       0.35635907       2.81431580       0.44755179      -0.29134518
C       15.39979090      16.78707816      10.05924161       0.69418965      -0.52258831       0.45804040       0.82392555      -0.18108606      -0.72484863
O       16.72333620      16.79674288      10.49590853      -0.39026470      -0.16397335       0.12774150      -1.26281416      -0.22876942      -0.04817688
O       14.99214198      15.89297908       9.31142963      -0.04720075       1.24350782      -0.85545910      -0.23106420       0.46949017       0.40031660
H       14.65274796      17.90084481      11.60440333      -0.05060474       0.14403352      -0.02474420       0.06245133       0.66098970       0.58256602
H       13.62312506      18.02674600      10.20724744       0.12596467       0.09835274      -0.45489752      -1.58104575      -0.14280733      -0.70643449
H       15.17051796      18.93119733      10.13809625       0.06223561       0.04466353       0.13479655      -0.69273037      -1.11292171       0.86203355
C       16.53471571      16.92929373       0.99089754      -0.24216930      -0.24331866      -0.47356062      -0.76619732      -0.73732960       0.18261775
C       17.69954389      16.57704370       1.92964743      -0.43113371       1.43528634       0.61291905      -0.80124652      -0.18483520      -1.06762922
O       17.51387902      15.55897045       2.77774127      -0.38601052       0.10828544      -0.97989506       1.84061205       0.92488146      -0.01024663
O       18.74373430      17.21269694       1.85229765      -0.85532566      -0.08714770       0.00775257       0.54101729      -0.09037125       0.45946193
H       15.65894401      17.07230844       1.66837545      -0.04911133       0.00487972      -0.11550043       0.01533008      -0.35364115      -0.80237013
H       16.31719901      16.12147722       0.22873832      -0.04988053       0.23340232      -0.17424407       0.04000100       0.53646958       0.97218478
H       16.67282284      17.85821778       0.42882263       0.06441276      -0.25855979      -0.09777509       0.38138640      -0.00650442       0.00205934
C        5.89974303       2.55630333       6.97429006       0.01171483       0.55868228      -0.49008138       0.92400402       1.01018977       0.50751853
C        5.26729502       2.09055022       5.72857755       0.36585999       0.53694060      -0.04150636      -0.18480124      -0.82612795      -2.27426410
O        5.76406491       1.25737117       4.91576186      -1.06270808       0.16805172       1.05182539      -0.45164371       0.92945135       1.46122646
O        4.08226995       2.65137650       5.44069120       1.06057128      -0.54873815      -0.60916667       0.29576528      -0.39754659      -0.41005874
H        6.17394887       3.65952648       6.97483301       0.07300769      -0.15223923      -0.02723670      -0.57218122      -1.22392869      -0.07518139
H        6.79114997       2.00614061       7.17997565       0.00729968      -0.15039305       0.08820492       1.04730999      -0.39270324      -0.17299101
H        5.28033133       2.32945157       7.82568997      -0.26362875      -0.06476152       0.02018727      -0.73909324       0.29666370       0.49277759
C       14.73448722      19.78886753      15.43381398       0.07972668       0.30624192      -0.88131805       2.73622012       0.99634862      -3.35794067
C       13.97005213      18.93653228      16.26786286       0.79628322       0.65381048       0.54714938       0.38768411      -0.64173245       2.51019788
O       14.03687024       0.56881279      17.57433011      -0.78766805      -1.14202005       0.30846471       0.13351208       0.29939723      -1.05918932
O       13.44354126      17.90324783      15.88184875       0.51100504      -0.89917970       0.66552823      -0.77756983      -0.88457561      -0.33941251
H       15.87389823      19.56743415      15.48604433       0.19530747       0.27972312      -0.21193862      -1.54083538       0.34204721       0.34637091
H       14.57581620      20.87465233      15.49905578       0.24638400      -0.08210808       0.27225813      -0.03718485      -0.10873950       0.36592931
H       14.45254049      19.46069458      14.41333028      -0.10668797       0.17123592      -0.12377612       0.16797246       0.42483491       0.01599729
C       13.69643019       8.43793094      -0.38470096       0.30895885      -1.28211936       0.00258457      -0.58369744      -2.74118233       0.37430140
C       14.85531933       9.20078268      -0.75969960      -0.42484256      -0.14364253       1.80103084       0.81365597       1.55557156      -1.23680806
O       15.97433664       8.76040041      -0.24251624      -1.13602184      -0.07075161      -0.03885978       1.29122031      -0.07455826       0.30033833
O       14.84881648      10.19621915      17.17420132       0.46869628       1.00081936       1.20731247      -0.52277279      -0.25264096       0.17091799
H       14.04330209       7.46467552       0.08919067      -0.29999012      -0.30373412       0.13891843      -0.66546965       0.88106239      -0.59366012
H       13.03104281       8.23957410      -1.22088993       0.05548294      -0.50886976      -0.24110151       0.05921593      -0.28728196      -0.35365865
H       13.04691744       8.89297033       0.32318875       0.09165991      -0.04210941       0.25081165      -0.46745139       0.82502812       1.00629485
C        0.02788026       2.49694306      17.14836186      -0.10290177      -0.64977316       0.60777560       0.54457808       1.41647637      -0.21615985
C        0.41642044       1.17205471      16.50733612       0.52702353      -0.37145082       0.64915095       0.59729463       0.22265387       0.09932274
O        1.71232915       0.82617749      16.37067403       1.72995408       0.55676536      -1.24273096      -0.22134718       1.15954173       0.56231540
O       -0.45667967       0.40135483      16.13445344       0.43683137       0.78253405      -0.30978904      -0.84905994      -0.73336220      -0.39172399
H       -1.08922908       2.62049161      17.09767187       0.37752373      -0.03401454       0.02990024       1.15365553      -0.31056070       0.27989307
H        0.48817285       3.39940078      16.62154151      -0.23366396       0.16817508       0.11427323      -0.44476879      -1.15883648       0.16691476
H        0.47207224       2.61075621      18.16765028      -0.15633380      -0.00903376      -0.16319544      -0.67584771      -0.32207906      -0.39436543
C       16.31018519      12.63379094      10.97652193       0.87861247       0.29983726       0.66721510       0.46327233      -2.25389457      -1.48714852
C       15.36155443      11.49762098      10.74226443       0.48895641      -0.21320112       0.03838044      -1.65409184      -1.39811206      -0.46971232
O       15.74173550      10.46201610      10.04588456      -0.36144972       0.40353045       0.32831537      -0.06912610       1.35647476       1.11720943
O       14.13191646      11.58066652      11.17663824       0.77364605       0.63426293      -0.08537151       1.26260912       0.14292149      -0.03318167
H       17.10015875      12.36126463      11.63291008      -0.08382481      -0.01302646       0.17615825       0.83089858      -0.27304569       0.94598013
H       15.85683828      13.51611922      11.21887215       0.19407086      -0.14563299      -0.22270756      -1.39805222       2.44127774       1.04863286
H       16.77095822      12.78271667      10.01739991      -0.10915572       0.12491482       0.07411602       0.61737394       0.38501009      -0.73569465
C        4.61762745      16.29116833       7.99162684      -0.38431582      -1.50660934       0.60016393       1.28242397       1.24767482       0.75636655
C        5.03019198      15.82715044       9.39587986       0.37335003      -0.69435835       0.67174478      -2.47531509      -1.11048150      -2.68075252
O        6.19130832      15.87675867       9.67786258      -0.60074272       0.02388288      -0.57119737       2.97099423       0.50966305       1.55043459
O        4.10392599      15.14210475      10.09069129      -0.63627622      -0.41205823      -0.77329516       0.03427911       0.35778937       0.18636927
H        5.26313252      15.79560344       7.27160305       0.33924267      -0.21718466       0.01327286       0.35316524      -0.39144954      -0.16053843
H        4.91706615      17.36491600       7.88436168      -0.04611461      -0.05447739      -0.33786569      -0.43941158      -0.55013549       0.18927422
H        3.62759418      16.13492700       7.65214056       0.09394508       0.10177623      -0.08253685      -1.45232117      -0.12529171       0.14295159
C        7.61719077      17.09590039       3.58194599      -1.06689412       0.53791556      -0.02629005       1.57594872      -0.64189976      -0.70050931
C        7.88840848      16.11691099       4.66134573       0.11870960      -0.86449498      -0.94407667      -1.39301789      -0.73543549       1.01086926
O        9.01823005      16.02565295       5.19875738       0.62201179       1.10395061      -0.33652363      -0.42239928      -0.08340386       0.09505785
O        6.82678114      15.40920330       5.00540308       0.03103557       0.68215305       0.47642937       0.55868697      -0.08019829       0.45456266
H        6.82130073      16.76005798       2.93868191      -0.06902870       0.13097785       0.00026389      -0.35987645       0.17783122      -0.42501283
H        8.55675596      17.16650863       3.03619789       0.30269501      -0.19783754       0.30117450       0.11727443       0.00836581      -0.66890073
H        7.50222286      18.07933881       3.94852157      -0.09569296       0.31617000      -0.28108626      -0.81054562       1.27142644       0.77651107
C       14.54626368      10.71074735       6.93708376      -0.67888459      -0.25017700       0.38021929      -1.03297544      -0.16760865       0.59282732
C       15.71806491       9.98498838       6.44955620       0.60812525       0.16620610      -0.19187340       0.11463904      -2.60054803      -0.80865896
O       16.52898697      10.44832376       5.65949619       0.97754994      -0.40655367      -1.45691717       0.92711163       0.97511220      -0.19729030
O       15.84234493       8.64344384       6.70460240      -0.32776282       0.12300582       0.56389669       0.07520175       1.03175426       0.12215194
H       13.60438171      10.25733382       6.52840611      -0.07784436      -0.18377827      -0.15454778       0.60468543       0.27937788       0.41844320
H       14.66853614      11.70570082       6.56036388       0.02956701       0.01745183       0.21676347      -0.36894694       1.02838910      -0.23275730
H       14.52895609      10.74965317       8.03508886      -0.10307371      -0.12865082       0.00611775      -0.09224406      -0.16986419      -0.13649893
C       16.25322526       1.27533254       2.34216810      -0.18467919       0.47966938      -0.12254513       0.55922401       1.30797863       2.44269347
C       -1.19240138       2.16970616       2.25290288       1.26779920       0.01858395       0.61625184      -0.06874448       0.59242964      -0.09765938
O       -0.08085282       1.58845910       1.83632027      -0.43911257       0.48706763      -0.33804152       0.37064075      -0.29765630       0.22599983
O       -1.16621646       3.39317495       2.49338630       0.33956349      -0.08790466      -0.19416889      -1.09492421      -0.19247556       0.30862951
H       15.55512753       1.63078682       1.61362053       0.02413919       0.02859666      -0.08018479      -0.86559188       0.39373073      -0.48213369
H       15.78618918       1.37109323       3.42129883      -0.03183087       0.36494016      -0.05505412       0.85611314      -0.27510497      -2.36534452
H       16.51041349       0.26462959       2.10975087       0.14746713       0.16240059       0.00237464       0.24190859      -0.64496785       0.19114178
C       10.07452427       9.91616401       2.01464138      -0.00001338      -0.70150835       0.17502462      -1.85459912      -0.27978504      -0.36840960
C       10.97025935       8.93135096       2.66482934       0.18295538      -0.51457511       0.59403415       0.52408952       1.46907926      -0.43595338
O       10.66379741       7.80142608       2.97592643       0.01511012      -0.30846688       0.70070406      -0.49977463      -1.58894694       0.37508240
O       12.17393195       9.47148980       2.86153282      -0.91878849      -0.14923496      -0.72320785       1.03041458       0.07597184       0.54628229
H       10.41037459      10.94018749       2.09288272      -0.16749360      -0.03371849       0.05662171       0.36737499       0.22591776      -0.33012170
H        9.08981025       9.91542719      21.22064721      -0.21889518       0.03081360       0.09976961       0.30716825      -0.20447357       0.06067514
H        9.80404282       9.62409222       0.97997409      -0.20771470       0.15529573      -0.14538074       0.51987290       0.22427784       0.21239984
C        5.48695799      11.66526945       4.61299913      -0.04935365       0.74578988       0.95438076      -0.72856820       0.87477863       0.71536100
C        4.11390006      12.14828158       5.18999411       0.10572590      -0.39267755       0.54935410       1.47120929      -2.25572062       2.08573842
O        4.00291744      12.31135616       6.57331808      -0.81304047      -0.06696084       0.64376392       0.02682364      -0.19829267      -3.32734084
O        3.17349248      12.03916016      23.11230097      -0.13742330      -0.11345853       0.31599108      -1.66349745       0.98873711      -0.22839451
H        6.04234313      12.49922953       4.16185433      -0.10497011      -0.05226015      -0.11597001       0.00025515      -0.12261313      -0.00899786
H        5.36490316      10.84922879       3.90186560      -0.11640734       0.05033313       0.04001007      -0.38621569       0.21197295      -0.41320184
H        6.04344653      11.20377647      24.10262028      -0.24342760       0.18640091       0.23072835       0.73509932       0.02619430       0.60193735
C        8.62050669       3.46735310       4.36321356      -0.13990090      -0.45337898       0.58946846       0.11899377      -1.33307028      -0.63318098
C        9.58327961       3.63600046       5.52366988       0.40108024       0.67193958       0.51127960       0.44344890      -0.19547290      -0.01649988
O        9.22922463       3.54126337       6.71000276       0.32345788      -0.33589312       0.77345004      -0.75812674       0.04810353       0.28384495
O       10.83644399       3.89758940       5.28060136       1.14776963       1.12572680      -0.13821836       0.78506219       0.34273487      -0.75387561
H        8.03926631       4.37860110       4.27482121       0.17355216      -0.23894569       0.19548090      -0.17616835       0.55178857      -0.34955353
H        7.88581006       2.66669236       4.64491352       0.16113372       0.17233636      -0.09353483       0.61577094       0.45609128      -0.45771140
H        9.15828888       3.21202234       3.37822420      -0.35818976      -0.17561105      -0.04113551      -0.73942101       0.38938695       1.44057775
C        8.22238084      14.86077459       0.93058885       0.57345463      -0.78768182       0.00680588       0.56824648      -0.91727805       0.31744945
C        8.74009031      13.47937414       1.58238780      -0.43878761      -0.81178757       0.47967846      -0.76002192       0.40459061      -0.79245532
O        7.77155310      12.70449379       2.04848281      -0.25151089       1.57794534       0.42226822      -0.47839522      -0.41335738      -0.37129760
O        9.92301563      13.11581292       1.70058000      -0.33156881      -0.74174942       0.20409304      -0.02210140       1.03123224      -0.40072125
H        8.76006458      15.62886109       1.52807110      -0.12001302       0.46666051       0.04531939      -0.65383494       0.00627851      -0.35689557
H        7.10830683      14.90490341       1.01861615      -0.04255827      -0.01393360       0.21042164       0.84832770       0.18356377       0.36363682
H        8.44029865      15.06109321      -0.14716184       0.16745775       0.41903591      -0.13122543       0.29466361      -0.69595337       0.66200835
C       12.25348336      15.99419773       7.27836543      -0.03402851       0.05411214       0.87735355      -0.87869585      -0.51083142       1.70075250
C       13.02228108      14.69214480       7.21904852       0.69516820       0.93456117      -0.35407139       0.06659651      -1.04319084       2.10750771
O       14.06581604      14.66309166       6.40632890      -0.10862287       0.20926648      -0.98999533       0.23271060      -1.03183627      -0.34267730
O       12.78736020      13.69156830       7.93785797      -1.19437463       0.63609871       0.25795558      -0.40874046       0.88368106      -0.83001864
H       12.02100077      16.21981660       6.26468811       0.00031162       0.26703172       0.06452517       0.08048816       1.07313251      -0.97450978
H       12.81590051      16.78561039       7.85348845      -0.27491888       0.07526944      -0.07604317      -0.41487634      -0.62740999      -0.87745851
H       11.24449332      15.85486915       7.75924674      -0.11538247       0.11609503      -0.39277821       1.03791142      -0.01636048      -0.10990328
C        6.92731844       1.19353951      20.39775850       0.31245083      -1.00507254      -0.14596797      -0.87718487      -1.38428950      -0.20144537
C        6.03332527       0.13881816       1.00230561       0.97111391       0.66185102       0.56091477      -2.98926115       0.12124383      -0.19027781
O        4.65666054       0.40417877       1.12149313      -0.20960836       0.55438229       0.69194497       2.30742097      -0.07998633       0.27174032
O        6.43051147      -0.87430296       0.39412568      -0.45917393      -0.23397028      -1.06343714       0.18785757       0.83794069       0.55451953
H        7.61679120      20.29745118       0.96470892       0.05333514      -0.02026229       0.19322178       0.32884824       0.34210724      -0.07496309
H        7.48316371       0.60327656      21.14106448      -0.19798120       0.08914886       0.10644878       0.19091374       0.54162973       0.04580623
H        6.30596100       1.94191635      20.90589689       0.06685778       0.09271665      -0.04742811       0.20041120      -0.07429975      -0.13149524
C       10.95245570       6.39427653      11.91013563      -0.63336123       0.41518329      -0.30639043      -1.46056449      -0.37439933      -0.96255738
C       12.29104188       6.14442453      12.47185052       1.17761515       0.16755397      -0.02327122       0.40456009       1.78300846       0.51888007
O       13.33149958       5.90455328      11.84294046      -0.02119260       0.14911472       0.35384014      -0.24412322      -0.47005954       0.05921280
O       12.26427113       6.44916162      13.77826176       0.74975308       1.10939221      -0.23968713       0.91386473      -0.82575744       0.12548316
H       10.89070409       6.20850962      10.83796364      -0.24027825      -0.17715480      -0.16694183       0.10809546      -0.05629301      -0.06147408
H       10.51871024       7.39113808      12.05878064       0.15595056      -0.21775862       0.13511837       0.61356884       0.24276131       0.23745713
H       10.23261775       5.75598640      12.42904824      -0.13288280      -0.29867461      -0.06453200       0.11402327      -0.36559984      -0.07373333
C        0.35543980      11.20111625      14.92656554      -0.97344608      -0.25155244       0.71137167       0.27242160       0.86449212      -1.83450913
C        0.90118719      12.36949500      14.00995815       0.55710693       0.51327106      -0.25068065      -0.71429765      -0.64228189       0.07186866
O        1.38498290      13.45764727      14.59564752      -0.20427799      -0.41749620       0.08539544      -0.24069455      -0.93659765      -0.51072526
O        0.80701426      12.24121294      12.76452690      -0.25651069       1.58336392      -0.58863093       0.14436646       0.18200698       0.57843947
H       -0.46783440      10.68827327      14.30486659      -0.15049342       0.06317326       0.03969077       1.08983088       1.03838265       1.33032894
H        0.12982452      11.55065745      15.94552310       0.24503122       0.18492010      -0.23208168      -0.36981091      -0.18661311      -0.27300340
H        1.19439273      10.50014187      14.96639373       0.17918101      -0.12946209      -0.04011291       0.05563188      -0.31762573       0.23956716
C       14.99769498       2.91706022       5.55889451       0.37338503      -0.28322915       1.04589811      -2.13885546      -0.42196414       0.21420513
C       15.20819439       2.82466932       7.04346192      -0.11167578       0.77511577      -0.08641657      -0.14281498      -0.65667993       0.33520043
O       14.68132219       1.85568589       7.64321984      -0.27587288       0.28797468       0.55506261       0.11686516       0.38053131       0.23168612
O       15.92493922       3.73958478       7.63826150       1.37991694      -0.70237874      -0.90262699      -0.14712191       0.57183969      -0.24454176
H       15.19572207       1.94981591       5.13094840       0.18430649      -0.06831398      -0.04489758      -0.20302069      -0.88982654       0.07112548
H       15.60134992       3.54688547       4.96476847      -0.19744893       0.38890079       0.19597877       0.69978154       1.54842341      -0.21636412
H       13.88532063       3.11713854       5.40363503      -0.15042704      -0.25506423      -0.01138109       1.25566792       0.00362465      -0.12926902
C       12.04111420       2.13473821      11.81014281       0.19596799       1.28119470       0.48922602       1.53579271       0.05512845       0.04572700
C       11.41204841       0.80118008      11.79132349      -0.43328747       0.79483517      -0.34901194      -1.06480050      -1.54136395       1.60068631
O       11.26314218       0.18415222      10.69134351       0.90549253       0.30704702       0.27922423       0.12292543      -0.14481473       0.09212375
O       11.02630337       0.33366551      12.95615322      -1.85059409       1.02970336      -0.52897483       0.50239027       0.43315041      -1.27823853
H       13.09392675       2.07205524      12.11783116       0.05803070      -0.02703715       0.19563914       0.20250696      -0.38366738       0.03787364
H       11.64086310       2.75948028      12.56601850       0.05718504      -0.00906263      -0.14678504      -0.96463126       0.91592360       0.75767636
H       12.08531859       2.59607241      10.84982473      -0.01632462      -0.08267973       0.05722594      -0.30259746       0.30739331      -0.71662819
C        8.83157700       7.28665437       5.49789306       0.49256903       0.21409264      -0.17574750       0.28791130      -0.01858719       2.65556002
C        7.62383692       7.72000476       4.76930809       0.45702003       0.13445631       0.75675384      -2.78204203      -1.32260299      -3.67184591
O        6.98840631       6.84155891       4.04483343      -0.40968393       0.23378980      -0.14180991       1.53721547       2.08803749       2.32489848
O        7.20357828       9.00842863       4.65752714       0.08498303       0.02013953      -0.21463154       0.29943633      -2.11048388       0.54657817
H        8.75795207       6.21526459       5.75008451       0.30936400       0.05856966      -0.11979927      -0.24583343       0.12610626      -0.26954097
H        9.00101129       7.77267764       6.52595084      -0.21397907      -0.00383296      -0.46097987      -0.16047922      -0.08706337      -1.61635923
H        9.69584189       7.34428798       4.84754551      -0.17646445      -0.19760538       0.08079185       0.49217713       0.42007399      -0.17752951
C       12.50039764       2.86730214       1.09308772      -0.48359145      -0.28397153      -0.50879590       0.53892708      -1.41459596       0.55221426
C       11.88910741       2.87974873       2.50238157      -0.94405854       0.71169894      -0.80606972       0.82117099      -0.23918465       0.02357531
O       11.62388569       1.81179789       3.13092994      -0.37495487       0.64961755       0.37729184      -0.25817451      -0.16620350       0.08766448
O       11.81743821       4.04995764       3.03500312      -0.35063948       0.81972311       0.70594115      -0.63193226      -0.10352826      -0.09276447
H       12.30391671      20.64334019       0.48942369       0.11825322      -0.20261971      -0.17016731       0.16574290       0.34799415       0.85082543
H       13.63724459       2.89798186       1.27750172       0.00047583      -0.42937550       0.09612191      -1.49214637       0.45823207      -0.67085326
H       12.02534164       3.66448824       0.54637436       0.18681883       0.05568574       0.06762271       0.53391570       0.88629758      -0.38105908
C       10.17629169      12.99337618      16.69852296       0.42656342       0.70140054       0.54854987       0.15069115       0.34041697      -1.53882265
C       11.65681759      12.92828788      16.34323988      -0.74106058      -0.71863167      -0.20581766       0.84627473      -0.60314375      -1.00357139
O       12.43693963      13.81414455      16.99704468      -0.75166165      -0.01167736      -0.41262554      -0.09244347      -0.58416784      -0.35233057
O       12.16248647      12.16258741      15.45827027       0.67816519      -0.45645468      -1.04097286      -1.13637042       1.09342754       1.26356316
H        9.65708251      12.22660041      16.09436220       0.07678896       0.21093560       0.20699431       0.13773006       0.07037634       0.38490900
H        9.72640785      13.96869323      16.37421285      -0.09929174       0.06597451      -0.01074846       0.43708241      -0.54771692       0.37944356
H        9.98949109      12.84865029      17.74783596      -0.07665646       0.13061881      -0.11242153       0.02697681      -0.07731186       0.66827583
C        1.53975267       8.91882704       4.81463060      -0.55284575       0.34299927      -0.15577846       0.80533487      -0.28171009      -1.14857578
C        2.32348728       8.96090553       3.50767405       0.14502499      -1.01992809       0.37308045      -0.83934391      -0.09083739       0.60917115
O        3.59137618       8.66911152       3.62030302       0.40666301      -0.40962992      -0.02293835       1.21532822      -0.40519014       0.33741736
O        1.76215663       9.20575906       2.44259777       0.87443763       1.67466010      -0.13798258      -0.37018555       0.29435512      -0.91649389
H        0.51511198       8.88564197       4.58922138       0.23470328       0.37983310       0.08755196      -1.68665576      -0.13974312      -0.56581235
H        1.65929027       9.82675799       5.35836872      -0.06444209      -0.12586406       0.16939180       0.64024884       0.87501431       0.64550924
H        1.77230790       8.03584152       5.37181928      -0.03476172      -0.18008206      -0.17690154       0.44541186      -0.50572699       0.76734823
C        2.90095298       0.44729667       8.91325156      -0.61956837       0.96530133       0.83459876      -0.30316666      -0.50851381       0.18047260
C        2.03622789       1.58799829       9.57085769      -0.56404173      -0.28601123       0.49621234       0.61608452      -0.59133732      -0.46337914
O        1.78291342       1.47075837      10.79515704       0.44437418      -0.86164257      -0.29956624      -0.01397157      -0.49075764       1.06000590
O        1.68959972       2.58863828       8.88140842       0.24265597      -0.26265442       0.95128025      -0.15572464       0.21191621      -0.70502579
H        2.92570403      -0.46116407       9.59572882       0.32944924       0.26457522      -0.06242379      -0.04345768       0.98758423      -0.74066710
H        3.94470295       0.81976028       8.80105800       0.16999853      -0.09537153      -0.02434729      -0.41583741      -0.22156247      -0.00881967
H        2.53200212       0.13538443       7.89099245       0.08654442       0.15264666      -0.01586350       0.24570775       0.42497516       0.88683450
C        5.95773159      16.53155879      16.14477198       0.95228299       0.01087055      -0.28139753       1.32945299      -1.12714040      -1.92396903