640
Lattice="19.152215 0.0 0.0 0.0 19.152215 0.0 0.0 0.0 19.152215" Properties=species:S:1:pos:R:3:momenta:R:3:forces:R:3 energy=-80136.859375 stress="-0.01143477950245142 -0.0021319014485925436 -0.0024416265077888966 -0.0021319014485925436 -0.016294198110699654 -0.0011962385615333915 -0.0024416265077888966 -0.0011962385615333915 -0.01982516422867775" pbc="T T T"
C        4.74490288       2.24095254      13.02289794       0.74902523       0.93647667       0.76777109      -1.93187308      -0.54808366       2.37742734
C        4.06114605       3.13571027      12.05741560      -0.53973113       0.20935342       1.20504106       1.10527015       1.80365324       2.41764736
O        3.74940834       2.82460531      10.94047852      -0.27865389       0.25954908       0.80671718      -0.74615228      -0.19751820      -1.93953836
O        3.91653454       4.41866707      12.62359892      -0.57540335      -0.41117954      -0.05331154       0.88690251      -3.08000708       1.01413763
H        5.69441724       1.88836726      12.73068185      -0.05283084       0.09913187      -0.03509478       1.82572126       0.30017591      -0.60185713
H        4.24211914       1.27864020      13.08575098       0.13021536      -0.17869424      -0.05903920      -0.78539950      -0.32995981      -0.34441796
H        4.68759087       2.58685683      14.09301159      -0.00192501      -0.24105277      -0.02901083       0.53150702       0.17520186      -1.20864463
C        9.69918319      11.47934855       7.08109592       0.06527787      -0.31014523      -0.05548300       0.63320822      -0.12511829      -1.04815352
C        8.34238366      11.00122348       6.74598483       0.21948514       0.16058038       0.01050206      -3.40418577      -1.29242110      -0.32613826
O        7.97168394       9.69938645       7.08007338      -0.28561336       0.70742629       1.04904752       0.09409893       1.97217989      -0.72136772
O        7.41505683      11.66176648       6.21240570      -0.60089774      -1.08171898       0.37451298       1.94237018      -0.17739284       0.73254377
H       10.53088304      10.80974178       6.79484861      -0.39187364      -0.19043599       0.15499841      -0.49090099      -0.17816961       0.23910956
H        9.80359815      11.76585670       8.10895241       0.22084652       0.01077276       0.09163745      -0.11788151      -0.22593138       0.95848000
H        9.85839494      12.37708873       6.52060542      -0.43010334      -0.26732857       0.36780635       0.06977284       0.85564768      -0.54812503
C       15.92752347      13.26548245       8.76860481       0.26280397       0.28517358      -0.50305224      -1.84147036      -0.36721477      -0.05316335
C       15.24200012      12.95997615      10.12283583       0.65816475       1.23304732      -0.80140423      -0.56210172       0.03026745      -2.46771097
O       15.92971191      -6.33693875      11.11452369      -0.57087143      -1.69350381       0.75533839      -0.25212610      -0.05103603       1.05568171
O       13.89624500      12.84530307      10.10332261      -0.79752457       0.59956240       0.00697192       1.05785060      -0.18623608       1.03257549
H       15.40848054      14.15980032       8.39174204      -0.01739010       0.12412843      -0.08706646       0.12920061       0.01162139      -0.37124738
H       15.74103199      12.42670349       8.01287385      -0.15102372       0.13169877       0.21263304       0.50811845       0.97840261       0.95021337
H       16.94695910      13.52362382       8.99650485      -0.11551892       0.07014045      -0.28714606       0.70289755      -0.34527397      -0.26413637
C       19.06114691      19.49151400      18.49342157      -0.10578398      -0.28618086      -0.31797408       0.03184730      -0.50182396       1.13344193
C        1.41577720      19.19039320      18.66667461       0.62627340       0.00776656       0.62666179      -0.64693213       1.40640759      -0.57017010
O        2.22476514      19.81975744      -1.23654742      -0.31577128      -0.04985138       0.31755438       0.21229720      -0.74589562       0.71262133
O        1.69586969      18.34198596      19.57981229      -0.29462265       0.66462907       0.67710680       0.80745798      -0.55980301       0.67575300
H       18.96122246      20.49406067      18.05539112      -0.20554441      -0.08786616       0.04659314      -0.35965270      -0.40780097      -0.14743659
H       18.51468171      19.38386321       0.32321401      -0.14500394       0.11823328      -0.04714283       0.72270751       0.34965599      -0.68354911
H       18.63024549      18.66816214      17.90704391       0.19759904      -0.00291588       0.19171487      -0.06079640       0.35079145      -0.53363544
C        8.41108551       5.20432021       7.94538698      -0.93129540      -0.43268247       0.04512035      -0.73774946      -0.01147532      -0.28837839
C        7.19458726       5.85457049       7.20191077      -0.51557981       0.66858315       0.25252929       1.61266994      -1.32174575      -0.31212997
O        7.00285623       5.63004167       5.99717065      -1.02687739      -0.35786737      -1.22438773      -0.35097307       0.47196683       0.95690656
O        6.46007220       6.69462552       7.94093831      -1.14029595       0.41060347      -0.54366575      -0.36827874      -0.05948830       0.59103096
H        8.85414743       6.05067108       8.42466378      -0.26097817      -0.00253022       0.32356549       0.58987761       0.65721619       0.85687995
H        9.20237401       4.84193389       7.25636677       0.11208788       0.17450426       0.15249589      -0.80941308      -0.26322952       0.08187234
H        8.11327411       4.48746701       8.76173992       0.07243602       0.24792618       0.07608324       0.12335968       0.48744130      -0.91423601
C        0.16785686      11.95318193       1.29049216       0.18482710       0.16232515       0.13547751       0.75341392      -1.25505376       0.44217592
C        1.13061917      11.11791524       0.41324966      -0.24989707      -0.10528202      -0.44104721      -3.39003325       0.43850815       0.03765307
O        0.52675526      10.70128098      -0.74586894      -0.90130512      -0.27919557       0.23568715       2.19837236      -0.65842998      -0.23598936
O        2.24229607      10.84562492       0.76998799      -1.49382682       0.01749391       0.30400362       1.91962266      -0.53266913       0.13667291
H        0.80842583      12.48272267       2.00700036      -0.05852656      -0.05119052      -0.09452322      -0.42532694      -0.01238275       0.08223957
H       -0.61697699      11.33497115       1.81043418       0.25079666       0.14312791       0.09056169       0.79016566       0.24461448      -0.32176575
H       -0.36478787      12.62364431       0.66820000       0.14880729      -0.21714160       0.33232076      -0.68500638       1.00229383      -0.73696715
C       11.26645193      23.43574623      23.08435331       0.14746192      -0.78614654      -0.22919927       0.17028579      -2.15496325      -0.20263419
C       11.12580253      22.22401619      22.11778310      -0.46374916       0.33098829      -0.68541317       0.54654682       0.30069113       0.13991022
O       11.57428168      21.09544414      22.39305725       0.32549037      -0.14886643      -0.80402416      -0.37529111       0.03160667       0.36414933
O       10.66846482      22.52815115      20.91654203       0.05707628      -1.26221560       0.16259505      -0.46231669       1.22885060       0.48328984
H       11.83030987       4.98770595      22.52181462       0.16274000      -0.00398679      -0.34259126       0.59553432       1.12983966      -0.26393619
H       11.84889960      23.04152150      23.92824077      -0.20896470       0.27276936      -0.13594410      -0.14105129       0.36511582       0.07558656
H       10.34821532      23.91496931      23.41191917       0.17297235       0.16318657      -0.04298079      -0.35052580      -0.11437815      -0.04556226
C        9.48319909       3.52375500      12.27632887       0.02908549       0.14413397      -0.16422375      -0.49286795       0.15932369       2.20681190
C        8.59882266       2.29239186      12.08858755       1.06941958       0.07832558       0.54716311      -0.96944386       0.12595522      -1.75588095
O        7.38070205       2.37018638      11.72013604      -0.64068158      -1.22938801       0.53009170       2.14090657       0.10321676       0.73012531
O        9.25643709       1.14893621      12.21145419       0.49029655      -0.43193527       0.02175426      -0.54947686      -0.01413339       0.49743307
H       10.55338249       3.42119705      12.04310294      -0.09665704      -0.12074752      -0.32093459      -0.37580204      -0.24615809      -0.15059319
H        9.41778565       3.72638242      13.39981450      -0.20441219      -0.00758172      -0.14178827       0.36616850      -0.34436360      -0.84184551
H        9.03939260       4.45270129      11.92914610      -0.20980125       0.05843807       0.02873174      -0.16258599      -0.00363451      -0.72785497
C       15.85151179       9.11129388       9.27320721      -0.02988624      -0.03065852       0.30997663       1.38013279       0.40508458      -0.40871722
C       15.98654583       7.62921434       9.02087062      -0.19659636      -1.25281160       0.36156970      -1.15815341      -4.11900711       0.43203408
O       15.14068102       6.76953084       9.44607368      -0.03144151      -1.04361039       0.18845856       0.86519802       2.57019734      -0.54671150
O       17.04186548       7.02934721       8.37631484      -0.50751329       0.64035991      -0.02461099      -0.36739284       1.92241395       0.46108896
H       15.34707199       9.25620545      10.19100658       0.12000020      -0.03491076       0.35587547      -1.17382467      -0.09108758       1.23620927
H       15.30451573       9.68939469       8.50580101       0.04383816       0.22197226       0.06428042       0.29988921      -0.39347261      -0.09873092
H       16.83068298       9.59570638       9.50501234      -0.20302618      -0.00541772       0.20374984      -0.26069236      -0.35737854      -0.74412531
C        0.88716448      21.55911573       3.11365867      -0.69022007      -0.75213621       0.38592514       0.17032869      -1.44833446       0.58545005
C        0.71069048      20.08636581       3.64201294      -0.11563603       0.95310955       0.42805278       0.78777611       1.33578300      -0.13609093
O        1.40690055      19.59572520       4.54085560      -0.46458298      -0.69333589       0.03011141      -0.22784901       0.53015906      -0.55426848
O       -0.22995134       0.22523851       3.02382979      -0.11096061      -0.21045077       0.41471404      -0.40875483       1.67169356      -0.61623484
H       19.52036223       2.57760374       2.14519658      -0.09722345       0.12193145      -0.12684452       0.35380626      -0.09235278       0.66410482
H        1.98300161      21.72365029       3.06687450      -0.08769882      -0.15100777       0.02564556      -0.44740313      -0.00512932      -0.29688025
H        0.53646731       3.08116500       3.90921132       0.17443730      -0.01408960      -0.15698979      -0.21079257       0.08142820      -0.19551888
C       20.76122816      -0.09018301      13.23724911      -0.51871246       0.26941524      -0.76398765       0.09853907       0.39062858       1.30733800
C       19.55392144      -0.09834523      14.14287379      -0.06366443       0.17539569       0.39078959      -0.92613262       0.72224933       0.16352898
O       -0.37923404       1.00398334      14.06580393      -0.48154678      -0.00777866       0.36699227       1.54695535       0.30990613      -0.82691324
O       19.23557529      -1.02742922      14.87742563      -0.36464135       1.34188790       0.40295580       0.34376124      -0.34969401      -0.02429795
H        2.35796524      -0.73765421      13.68406305       0.18726577       0.40953657       0.00238203       0.35832697       0.01948375       0.03523088
H       21.14811586       0.88798512      12.96102286      -0.15650589       0.34955758      -0.10065623      -0.00735362       0.31375092       0.41796336
H       20.47507903      -0.52123678      12.32669908       0.05587242       0.14863869       0.22675901      -0.55289614      -1.05564618      -1.79598939
C       12.00667073      17.96853977       4.39316561      -0.00573828      -0.25060537       0.03618977      -0.53386337      -0.41783336      -0.98264813
C       10.64000573      17.38678303       4.47037415       0.87435991       0.63164029      -0.59984024      -2.78110719      -1.31569898      -0.35306832
O       10.09420797      16.58985692       3.66446382       0.02892133      -0.99712687       0.05558213       1.47024286       0.85962248       0.12758613
O        9.81019013      17.74478070       5.48743008       1.23464714       0.28896846       0.31902652       0.73882413       0.57008302       0.75581640
H       12.62818164      17.60082566       5.19856498       0.19118796       0.05332047      -0.15109563       0.26386720       0.35613650       0.65196157
H       11.86449304      19.04404704       4.28530148       0.00039089      -0.09507022      -0.31596128       0.41943967       0.45849019       0.39647245
H       12.43022536      17.60303593       3.46405206      -0.23866353       0.18645295      -0.13657300       0.32001612      -0.21451874      -0.39870358
C       14.40671803      10.90708163       5.55827201       0.60882005       0.65620469       0.30181819      -0.17827839       0.78779048      -2.53264713
C       14.74218521      12.21261938       4.72139455      -0.10693649      -0.08447573       0.39669745      -1.99539733       0.13105357      -0.45016873
O       15.65655325      12.22014436       3.85492796       0.25028987       0.13354452      -0.49873528       0.88449669      -0.46218720       0.16077864
O       13.91080433      13.23422583       4.79861442      -0.16220592      -0.29378212      -1.45236498       0.43900275      -1.05898046       0.67921484
H       13.90025125      10.10977385       4.91846470       0.12478691       0.08441912      -0.02877798       0.45296168       1.08662903       0.39669651
H       13.75203534      11.21858892       6.33567882       0.35830977      -0.01726322       0.00963298      -0.54182410       0.02662589       1.08322704
H       15.34054612      10.48827210       5.85865580       0.09650175      -0.26387478       0.11843434       0.85063505      -0.40518874       0.64814097
C        6.78462828      21.02751595       7.87040647       0.03882552       0.28670180      -0.45374238       0.02774206      -0.41098434       1.62302601
C        6.49645434      19.75123496       7.15646817       0.13779921      -0.57907350      -0.29339886       0.28608108       0.21678060       0.71460688
O        5.87678831      19.79088049       6.10235720       1.28341425      -0.29558772      -1.02305261      -0.68233496      -0.62854803      -1.40691805
O        6.93222773      18.66641642       7.78621204      -0.05578166      -0.51367353      -0.61813957      -0.12270761       0.04310170      -0.15399933
H        7.54271900      21.64057170       7.42686696       0.09709517       0.15074249      -0.22189160       0.91222435       0.13739988      -0.40814602
H        7.02792765      20.76452707       8.91383708       0.25151487       0.20032224       0.09039667       0.23033078       0.45781565      -0.13081157
H        5.93015536      21.67510501       7.90419548      -0.07139116      -0.12518849      -0.23722104      -0.85775614       0.30373189      -0.09069645
C       14.47646068      14.95303092      13.44132130       0.26797488       0.47980776      -0.24387408      -2.42900181      -0.53855634       0.38974601
C       -3.75746665      14.93156858      14.62910012       0.05569014      -0.05500929       0.05607450       1.58929312       2.63510585      -1.60552406
O       -4.00256383      14.28842026      15.61071236       0.32204990      -0.06300899      -0.96724011      -1.42253554      -2.67784357       2.94816780
O       -2.71551453      15.75542567      14.66569400      -0.42776274       0.02482367       0.66768522       0.03164101       0.37606227      -1.58674693
H       14.39256951      15.91427582      12.99062874      -0.09093152      -0.11363835      -0.03223845       0.39212841       1.04703891      -0.62947315
H       13.39490168      14.77579130      13.76365287      -0.20853261       0.26684689       0.05532041       1.15661335      -0.00924381       0.06291471
H       14.60053096      14.21025382      12.65673633      -0.08335597       0.16832703      -0.02220673       0.71604997      -0.32500020      -0.01007921
C        4.55183256      -1.19586970      -3.48884662       0.95211563       0.33193872      -0.40673620       0.24582118       0.76141769       0.21635790
C        5.66613358      -1.95115021      -2.76249368      -0.00605592       0.36650248      -0.00910697      -0.69271374       0.71788990      -0.09597301
O        6.83111360      -1.58385807      -2.89742039      -0.67127704       0.23377457      -0.10440975       0.56663036      -0.32473296       0.06704277
O        5.33804203      -2.92453745      -1.91246280      -0.04429495      -0.50335977      -1.30785355      -0.27147114      -0.40625989      -0.05828226
H        3.66990192      -1.83037919      -3.74709328      -0.12646974      -0.11072465      -0.10216295       0.60871631       0.57244241       0.18442445
H        4.99900453      -0.68062723      -4.38134887      -0.05758708      -0.09842109       0.05232417      -0.44646332      -0.61362767       0.54221517
H        4.28211331      -0.35309825      -2.77123506       0.19507910       0.06165734      -0.30415760      -0.31625578      -0.92497122      -0.74689353
C       15.53342944      15.75677868       5.27125647       0.67447071       0.01377487      -0.71550466      -0.85584193       1.62853217      -0.58121371
C       15.04489200      16.07380916       3.83837964      -1.12688072      -0.31133823      -0.53495247       2.71629286       0.26383203      -1.70336747
O       15.68872941      16.86225108       3.03713596      -0.29942978      -0.86612950      -1.05538957      -1.75956285      -0.91383719       2.48365569
O       14.12626051      15.26114370       3.35649047      -0.38869258       1.31062084      -0.19100604      -0.55199897      -0.49230182       0.49923182
H       15.43639658      16.68548471       5.84480924      -0.17463587       0.48491408      -0.28585150      -0.00579552       0.12241957       0.26871929
H       -2.55347056      15.55367472       5.26483838       0.12722210       0.13579459      -0.26755124       0.28009981      -0.44939244      -0.11063431
H       14.91337996      14.98473558       5.72823049      -0.20042235       0.19876548      -0.29580586       0.40174359      -0.17005998       0.00860608
C       -1.77862685       7.27492113      12.30082641      -0.93472711       0.53758389      -0.76581940      -1.78366458       1.38183165       0.69821632
C       -1.40231090       7.21889967      13.76297995      -0.12873073      -0.59478625      -0.34558177      -0.68450707       0.13899454       0.23540479
O       -0.23890675       7.01792245      14.12548601      -1.32641150       1.30310856       1.22225425      -0.42717385       0.03963822       0.18336785
O       -2.40591296       7.39908550      14.68084241       0.39456550       0.43497822      -0.80504996       1.28624630      -0.25936902       0.27546716
H       -1.71980357       6.34901331      11.83896371       0.16711429       0.09727525       0.13278943       1.13681340      -2.29055238      -0.94745475
H       -1.23523139       8.03419430      11.76284050       0.18688501      -0.15591156      -0.07345451       0.59619164       0.27364439      -0.21441063
H       -2.85145454       7.43188808      12.08462446      -0.03541454      -0.09485311       0.08839355       0.16224813       0.64428651       0.66359055
C       12.56843172      11.89301639      16.53280893       0.26420062      -1.34503524      -0.11605953       1.51952577       0.07503125      -0.30225450
C       13.67196364      11.07375798      17.27916538      -0.16384344       0.07669888      -0.22493456      -2.20100451       0.64213437      -3.15546656
O       13.47310906      10.61412837      18.45312857      -0.32530279      -0.41337754      -0.08579880      -0.45207775      -0.30700493       2.56369162
O       14.60921034      10.74760854      16.56313097      -0.08325640      -1.20458911       0.40731932       1.63768554      -0.38896006       0.05660748
H       12.90804596      12.93047526      16.49314572       0.01868485       0.09765273       0.10652871       0.18124393       0.25433615      -0.09550640
H       11.57678535      11.88641307      16.86711796      -0.23165948      -0.18126521      -0.09642122      -1.60849071      -0.22216010       1.39750409
H       12.47536604      11.54626935      15.49309842       0.26217111      -0.01489984      -0.06986776       0.49080500      -0.08831763       0.04300714
C        5.51816012       2.18759064      17.39849698      -0.49937380       0.10700408       0.08299532       1.34984612      -0.96880728      -0.81170607
C        5.38397621       3.59891722      16.96661179       0.22709048      -0.85469891      -0.46172261       0.15417360      -0.25615948      -0.93061352
O        5.57710770       4.55192261      17.84724220       0.88319445      -0.57269656      -0.79646118       0.51739597       0.67004585       3.16856194
O        5.16796615       3.93427084      15.81326175       0.06453577       1.01445941       0.27737663      -0.30670920       0.00628984      -1.03866172
H        5.61345483       1.46849370      16.55310548       0.14347441      -0.10052126      -0.21919676       0.14374310       0.74795544       0.26625299
H        4.67771589       1.85734421      17.93899164       0.20843725      -0.06727567       0.26427804      -1.58739614      -0.37029535       0.98919642
H        6.36868400       2.06941386      18.07678033       0.18924117       0.12805300       0.11738866       0.11712751      -0.11671266      -0.00751290
C        7.25485724      12.19224257      16.43710410      -0.31727041       0.20454311      -0.23901390      -0.03819624       0.10143143      -0.57351255
C        7.79926954      10.75065474      16.66654880       0.26178570      -0.73374486       1.71311966       0.97955275       4.15515995       1.70751774
O        7.25464293       9.88158362      16.06213603       0.23373935      -1.58629796      -0.07425482      -1.02663159      -2.95568109      -1.36762023
O        8.81482515      10.58989345      17.53725903       0.98628430       0.05173482       0.47079737      -1.51922596      -1.14223862      -0.46642512
H        7.46497071      12.39376184      15.35201859       0.07873225      -0.18931561      -0.20713115       0.45611578       0.47487751       0.91035354
H        7.44644051      13.03106675      17.16084471      -0.06847411       0.03774823       0.01973279       0.56123817      -0.97142851      -0.79344517
H        6.16287902      12.13636540      16.36500014       0.14517351      -0.27130633       0.03652730      -0.23053151      -0.28283578       0.37103617
C       17.27595721      20.03070329       6.36399134      -0.30165768      -0.39970999       0.30019916      -2.03514671      -0.26224238      -1.33853328
C       16.31509277      19.34690230       7.35973292      -1.22494670       0.15482605       0.20663568       1.10409653       2.52611470      -0.22122717
O       16.38673492      18.15087095       7.57369778      -1.91479225       0.52967829       1.19945516      -0.64530271      -1.71731055      -0.40493375
O       15.54076151      20.18157162       8.01685854       0.02532879      -0.22593228      -1.56878979      -0.60337359      -0.32446337       0.09357297
H       16.97541075      19.64157021       5.32737355      -0.39792029      -0.16992124       0.11697315       0.87957281       0.20652717       1.25188041
H       18.31036404      19.79118824       6.57952960      -0.07114156       0.02340594      -0.00411781       0.35394365      -0.01999813      -0.04638760
H       17.05019362      21.10627989       6.31374233      -0.06366963       0.00750007      -0.00419906       0.51079780      -0.18671638       0.37516937
C       12.33604148       3.09627226      14.55055388       0.20575392       0.24633895       1.36011369      -1.73532653       0.84400803      -1.28315830
C       13.24339730       3.28143938      13.35721904      -0.32415531       0.33227926       0.90694268       0.67416644       1.03750026       2.08494616
O       14.41087678       3.70617961      13.83821463      -0.36550416       1.10135224       0.68898223       1.68609667       0.11148405      -2.43387699
O       12.95206600       3.19579743      12.17211315      -1.16101798      -0.22105932       0.13501002      -0.46921879      -0.47048146      -0.84054565
H       11.52530845       2.42608630      14.25598541      -0.05507178       0.25009683      -0.42661298       0.03147316      -0.41734090       0.48330289
H       11.83650471       4.06834614      14.76529682      -0.11866391       0.34760372      -0.45727595       0.07637395      -0.15976840      -0.41894591
H       12.86449039       2.94359588      15.46120010      -0.05727516      -0.07460657       0.17410878       0.53083354      -0.84600234       0.72676712
C        1.83464645      14.76061090      13.01942902       0.73502773       0.91690838       0.09253446      -0.30998659      -0.47815490       0.51586294
C        2.41209446      15.14933611      11.69163384      -0.14646610      -0.36166107      -0.52278212       1.52140355      -0.33737093       0.69281751
O        3.57218688      14.80204384      11.37450818      -0.58716416       0.25664527       0.08651255      -0.53643227      -0.02940911      -0.05967760
O        1.69484493      15.99017310      11.00647540       0.19700743       0.61161895      -1.48818240       0.52032495       1.41447401      -1.74726939
H        0.84425595      15.19141016      13.19739084      -0.11045157       0.13770315       0.20717711       0.15041280       0.36316943       0.09369737
H        2.57385774      15.06018976      13.78365847       0.14802421      -0.01589258       0.25933672      -0.34986106      -0.01276335       0.03454602
H        1.69063385      13.67552376      13.12912329       0.16803560      -0.17485115       0.10502647       0.33288819      -0.04896492      -0.29951170
C       13.96185521       6.09096285      16.66869234      -0.31888019       0.53341591      -0.06763492       1.80896854       0.97360897       0.78171062
C       14.05327007       4.83591319      17.52943397       0.19972668      -0.84208962      -0.17662587      -0.12690951       0.19242227      -0.41289252
O       15.24783269       4.57986802      18.03697113       0.97606739       0.47563978      -1.64979704      -0.27694321       0.55676103      -0.09230542
O       13.04697665       4.13632868      17.73576696      -0.23529609      -1.10913056      -0.16447591      -0.31181359      -0.31591678       0.13112211
H       13.68870313       5.91586980      15.60696229      -0.16412309      -0.24169366       0.06350126      -0.08992818      -0.10595441       0.60235721
H       15.01731569       6.54314292      16.67711938       0.08780871      -0.04284910      -0.02883734      -1.46241081      -0.35593039      -0.23501289
H       13.28026235       6.83531001      17.16843966       0.03728552      -0.29851291       0.07226009       0.45901555      -0.61185884      -0.63569021
C       11.93362966      10.81564892      11.30420696       0.00581267      -0.20766972       0.54699307      -0.54997700       2.10922122       2.64837933
C       10.43930587      10.71648058      11.24419560       0.64191372      -0.44879058       0.12499467      -1.56592393      -1.28079784       0.84084082
O        9.80839589       9.86554616      11.93903243      -0.14503549       0.12402014      -0.47830399       0.55896842       0.55887318      -0.20031118
O        9.76999868      11.49613602      10.42023990       0.53388524       0.07006047      -1.49278831      -0.64177126       0.51159656       0.12862241
H       12.28673447      10.80321419      10.32207341       0.09602652       0.19745962      -0.06840913       1.12792516      -0.20484954      -1.66703451
H       12.36612423      10.09379231      12.00926131       0.22673721      -0.11122122      -0.17462305      -0.07656905      -0.04984719      -0.59761208
H       12.22485601      11.85905002      11.73909235      -0.40911654      -0.22778230      -0.09151816      -0.55167007      -1.51978934      -0.79057902
C       21.35637673      13.47004846       8.46006048      -0.47063098       0.57900431       0.23148859       0.12416703      -0.96128577       2.32782793
C       20.37991264      12.74731295       9.46640975       1.29951652       0.09519769      -0.11182873      -0.88841844      -1.06762123       0.49915773
O        0.03728334      13.05210963       9.69757580       0.33874429       1.77054619       0.44993926       1.11250961       0.78255641      -0.94313395
O       20.86900087      11.64744110      10.08400366      -0.27563480      -0.58347341      -0.95005772       1.40449607       0.29979229      -0.87682956
H       20.73256209      14.00783914       7.80842269      -0.18119494      -0.20204519      -0.11692912      -0.90196061       1.06239796      -0.96755981
H       21.94683399      12.76524052       7.84158677      -0.04532332       0.09791594      -0.01493558       0.02293563       0.22057009       0.64143527
H       21.96722686      14.19963675       9.08573065       0.22614680       0.00266874       0.11234522      -0.29963815      -0.93171728      -0.86204946