640
Lattice="18.700606 0.0 0.0 0.0 18.700606 0.0 0.0 0.0 18.700606" Properties=species:S:1:pos:R:3:momenta:R:3:forces:R:3 energy=-80125.40625 stress="-0.02725650928914547 0.000647466629743576 0.0010714528616517782 0.000647466629743576 -0.01867811381816864 -0.0029836753383278847 0.0010714528616517782 -0.0029836753383278847 -0.025174612179398537" pbc="T T T"
C       13.35639332       8.17275697       8.31203183       0.32662335       0.10136480       0.61026706       0.58849287       1.01486993       2.32655907
C       13.23657910       9.61621902       7.88523189       1.14996413       0.18885449       0.50135755       0.34348041       1.42982292       1.04243350
O       14.17587713      10.48223010       7.96893859      -0.88126673      -0.51513091      -0.12690849      -1.82448876      -2.17024755      -0.46551523
O       12.00404811      10.02346753       7.53800467      -0.35480954      -0.76180948      -0.57777134       0.32173091       0.78465271      -0.00077665
H       11.20065729       9.39843707       7.70810585      -0.24830824      -0.11505354       0.04698049       0.33735836      -0.38220000      -0.56819034
H       13.08539197       8.04907292       9.44507668      -0.19160692       0.04734299      -0.09361257      -0.07579720       0.36607772      -1.87658548
H       14.43021646       8.02591023       8.34253144      -0.00564029      -0.35500549       0.27734026       0.32749856      -0.82599604      -0.42777300
H       12.79041240       7.48441889       7.70224276       0.22016000       0.03599461      -0.05607301      -0.11501020      -0.32195100      -0.20795801
C        5.67639093       9.65063185       4.14342705      -0.03603802      -0.53164832       0.45786607      -2.11403823       0.59417528       0.23292090
C        5.95552278      11.12369408       3.79563006       0.31631331      -0.37757627       0.15538386      -0.58366466      -0.55565858      -0.39720911
O        6.61654386      11.50993941       2.82254372       0.56002804      -0.10538977       0.35918005      -0.21666062      -0.35977077       0.92683995
O        5.32353329      12.00040245       4.61343453       0.78602437       0.01789399       0.19549154       0.74231839       0.37335300      -1.42067266
H        4.83928828      11.56409958       5.37751850       0.05221598       0.17727876      -0.09750094      -0.05907506      -0.14141861       1.11812711
H        5.84199979       8.95041094       3.34478681       0.15084489      -0.02367775       0.03207901       0.36110044      -0.19848287      -0.67206883
H        4.57403695       9.49344640       4.47827335      -0.07426514       0.08206287      -0.12623597       1.53355551       0.46894342      -0.43617266
H        6.25863295       9.35389786       4.99116766       0.03662586       0.20736492       0.06785601       0.71935272      -0.21570854       0.70982498
C        4.22601494       4.41943231      19.62252210       0.34492487       0.10676201       0.59228152       0.58589107       1.92246890      -1.01423573
C        3.68422485       3.38929289       0.03798731      -0.06232371       0.26480271       0.47516511      -1.69948483      -0.79071897       0.20181888
O        3.41899202       2.23141442       0.44190039       0.23085602       0.11242441      -0.07477049       0.43922281       0.34527349      -0.59826463
O        3.34425038       3.78809854      -1.18646272      -1.48829798      -0.25257849      -0.45159346      -0.05742449      -0.27965701      -0.38484979
H        3.78853293       5.76503964      -4.28344481       0.09190017       0.07230506       0.07304623      -0.16502988      -0.34473211      -0.70792234
H        5.25423820       4.60276164      19.30760735      -0.03929723       0.23424770       0.05503775       0.37680602       0.13735947      -0.05445472
H        4.32596304       4.14085979      20.63113262      -0.17750397       0.03346629      -0.16117041      -0.19732994      -0.56752241       1.54008901
H        3.73735109       5.41698592      19.52734113      -0.28222643       0.28383826      -0.12722435      -0.02021253      -0.70755643       0.04223511
C       14.45103486       5.35503800       4.70956897       0.00278070      -0.13705704      -0.60164930       0.73552686      -1.05991518      -1.07330430
C       14.83058546       4.34883010       5.83168045      -0.76605416      -0.48621705      -0.64349749       1.49777150       0.18811171      -1.85965717
O       14.18493340       4.29824917       6.84909724       0.26155655       0.39227666      -0.22338334      -0.87465632      -0.23807764       1.56486261
O       15.95028288       3.56299523       5.60028933      -0.32110615       0.58529443      -0.30810472      -0.87424356       0.19884561       1.25747561
H       16.25066183       3.06422114       6.54407225       0.27023261       0.01050308      -0.19308120      -0.30497167       0.85589230      -1.17546749
H       15.03617905       6.27801943       4.81130685       0.13089597      -0.19877179       0.05204349      -0.14276478       0.04349983       0.24634726
H       13.38842217       5.58462857       4.63249535       0.10213266      -0.13524083      -0.14735044      -0.05076873       0.03515945       0.72123182
H       14.68091031       4.97450515       3.68448235      -0.27190076      -0.05561726       0.13238394       0.28473464      -0.11870527       0.63762861
C       10.61091774      -0.62891414       6.45408701       0.23721618       1.25461719       0.63189442       0.15936863      -0.35156298       0.76757073
C        9.14401871      18.43978694       6.65962442      -0.05939615       0.12225661      -0.06954976       0.04528725       0.53428310      -1.10529482
O        8.32254344      18.67223219       5.77038678      -0.18466311      -0.26832678       0.75263229       0.24531686      -0.47445247      -0.89153421
O        8.85283323      18.66435285       7.90413687       0.75925427       0.67711766       1.71208623      -0.20748639       0.35185128       1.85750294
H        9.69441661      25.69172872       7.67983849       0.06137930      -0.13602294      -0.13507088       0.40795165      -0.02369559      -0.58429801
H       11.12650472      -0.60133165       7.43394350       0.02816080      -0.08904665       0.36414817      -0.10507745       0.36948115      -0.30728304
H       11.06070189       0.08939128       5.75538188      -0.18581886      -0.23363182       0.10286575      -0.03341007      -0.45882779      -0.06702113
H       10.77460189      -1.67781889       6.16078160       0.02318098      -0.03307190      -0.06839512      -0.46187258       0.24743658      -0.43766171
C       13.42629045      12.66635485      -1.17721896      -0.52335262      -0.63008390       1.11422637       1.76619196      -0.61657202      -0.27162841
C       13.89221681      12.47655956       0.26780981      -0.02304124       0.79946325      -0.35110309      -1.10853076      -1.57636213      -1.52481079
O       13.97976990      11.34656802       0.77256294       0.78739106      -0.10608905       0.63251361       0.50493973       0.98982024       0.14853442
O       13.98096128      13.58655947       0.96878100      -0.79759431       0.97483867      -0.66013202       0.68272901       0.66694254       1.14528799
H       14.77843853       9.30440613      -3.11542620       0.12563919       0.30021117      -0.12883651      -0.50248480      -0.08817357       0.63115925
H       14.06042628      13.38771046      -1.77450397       0.20274112      -0.08117544      -0.21763472      -0.71306193      -0.47157532       0.70745867
H       12.43600433      13.03236989      -1.02931193      -0.19320895       0.07023668      -0.00488263      -1.04162908       0.63089526      -0.67514390
H       13.36005015      11.70249548      -1.72866949       0.14345722       0.08705783       0.10793772       0.11731055       0.52599561       0.47614521
C       18.43117806       0.98737889       6.31810107       0.29956348      -0.45211394       0.28931682      -2.06021309       0.79057115       0.50491762
C       18.23333502       2.22844411       7.33594611      -0.48878809       0.19425466       0.27071663       1.14301097      -1.47491646      -1.59645259
O       17.10206566       2.55281905       7.75396068      -0.08444789       0.46301693      -0.77235185      -2.02863574      -0.05389917      -0.13665020
O        0.56188095       2.86698379       7.64490531      -0.79357681      -0.54026630       0.10252643       1.85868418       0.68769300       0.41935360
H        4.58352927       6.52309744       9.11753727      -0.24368596       0.17795243      -0.05888860       0.26390618      -0.68673468      -0.04231179
H       18.30485285       1.36442702       5.24799611      -0.03987064       0.23464666      -0.22986286      -0.04646482      -0.51608002       1.26136971
H       17.60054038       0.27502428       6.63639109      -0.09756915       0.03906357       0.25604807       0.90353668       0.54181415      -0.89375126
H       19.40732579       0.50567655       6.40056651      -0.13881390       0.19491734       0.06959077       0.06594431       0.10768385       0.25955713
C       11.35311972       7.50139085       4.87565220       0.01020559      -0.16148955       0.74020532       0.60264587       1.26169229       1.58064127
C       11.59948797       8.47310386       3.72576949      -0.46027260      -1.10481225       0.36231731      -0.24398759      -1.44447994       0.31325871
O       12.21092621       8.06457362       2.75821933      -0.91509573      -0.30774169       0.42275923       0.90368044      -0.31187016      -1.20359564
O       11.08713719       9.69968643       3.66874794       2.02186255      -0.60048913      -0.84957207      -0.43035829       0.64664519       1.46313083
H       10.62375135       9.83567074       4.53976097       0.35975048      -0.03859026       0.18522791      -0.45837063       0.26220238      -0.31266105
H       12.03812500       7.71053594       5.77284643      -0.44785137      -0.52960638       0.18333870      -0.14540547      -0.32224792      -1.51397228
H       11.48927531       6.51411751       4.44982943      -0.12036581       0.19089173      -0.37349492      -0.01528153      -0.28291702       0.28107572
H       10.42837745       7.61654060       5.45851157      -0.04338356       0.31213428      -0.07216955      -0.40234929      -0.02456911      -0.84254193
C       -1.82320768      15.08325589      17.85816124       0.42049382      -0.17839386      -0.28808112      -0.17728302      -0.35468644      -1.26744890
C       -1.83844674      15.90021122      16.57447509       0.02260598      -0.40046394      -0.04473100       1.48223233       0.80796099      -1.21030712
O       -2.03038244      15.16516291      15.46283742       1.25236674       0.00890323      -0.84455102      -0.36522561      -0.21316218       0.17293535
O       -1.52376131      17.10845316      16.51743946       1.14766648       0.14736389       0.03305059      -0.74896139      -1.03363538       0.57418382
H       -1.77006468      15.71603521      14.58135521       0.07264872       0.05632926      -0.10944611      -0.02729130       0.09692889       0.24744141
H       -0.79899437      15.19641833      18.26567532       0.20041620      -0.22889858      -0.28495873      -0.74429131       0.20986041       0.45801061
H       -1.99705773      14.00939036      17.61431042      -0.18570030       0.16453259       0.40159306       0.05163434       0.60994995       0.18228559
H       -2.69386222      15.47208122      18.39956469      -0.00153919       0.16846269       0.16707214       0.45142436      -0.12170020       0.78740281
C        5.20857041      15.18304881      11.75735555       0.40923160       0.41275457      -0.68661585       0.35915792      -0.28819740      -0.37747663
C        4.57681017      15.76412844      10.52679540      -1.67644030       0.83346611      -0.31821253      -0.15833318      -0.77406454      -0.89049333
O        3.38273327      16.01894018      10.49654199       0.40805228      -0.70154897      -0.51632883      -1.62336946       0.63704610       0.72083557
O        5.21124709      15.91608631       9.36397640       0.13782539      -1.26114372      -0.49945803       2.23595285      -0.94734418      -0.05948567
H        6.23414691      15.49829338       9.38832095       0.22061751      -0.21260764      -0.19689025      -0.49781919       0.44702128       0.18270658
H        6.06198925      15.82361891      12.01143831       0.22560055       0.05491794       0.02283914       0.09578145      -0.28595489       0.06399716
H        5.52823835      14.10351743      11.61323432      -0.12883889       0.18445743       0.00319853      -0.36875063       1.12550259       0.12564591
H        4.42131975      15.33404729      12.50728106      -0.10607089       0.07687637      -0.13240479       0.33962375      -0.45269910       0.32476425
C       12.61644838       4.86659240       0.98314146       0.20952217      -0.94984763       1.14084392       0.66603744      -0.07253581      -0.93203199
C       11.42700898       4.76186663      -0.02617634      -0.08171478      -0.28319819       0.23514421       2.26161003      -0.88587129      -1.57041216
O       11.54825715       4.45697686      -1.24173890       0.23580774      -0.21349308       0.43444925       0.41115013       0.39324704       1.03724790
O       10.26441203       4.89838499       0.51140367      -0.34689910       0.86030012      -0.93887756      -1.26467562       0.62474728       1.56696665
H        9.48197123       4.57560660      -0.12208455       0.09988275      -0.03493081       0.02903006      -0.39888012       0.05472898      -0.24289483
H       13.64305497       4.95953875       0.50110686      -0.03703916      -0.13495941      -0.05446645      -1.28393388      -0.52661461       0.13713422
H       12.58239664       3.96994324       1.63872136       0.02729437       0.12664566       0.18647170       0.20789137       0.41033581      -0.21032035
H       12.55547818       5.76131567       1.59529259       0.07494981      -0.10515308       0.20743134      -0.51860315       0.32900047       0.36472568
C        4.57656011      16.76764036      16.29967206      -0.30620904      -0.76370954       0.73074064       0.54370093       0.32598633      -1.40923703
C        3.28093417      16.35199032      15.61337227       0.32916441      -0.65304923       1.27285954      -1.15291309       1.19669819       2.09262967
O        2.13785432      16.24585346      -2.39587720       0.63142819      -1.04662254       0.40172280       0.12686980       0.12423402       0.79269642
O        3.16573235      16.18628709      14.42916278      -0.78256665       0.48161229      -0.18097557       0.87793887      -0.74941325      -3.02798986
H       10.53452882      21.97732504      13.90750989      -0.05020109       0.00788258      -0.04941848       0.20960957       0.84104133      -0.83559906
H        5.34031820      16.48127570      15.53362501      -0.02346728       0.16862133      -0.25014460      -0.11242855      -0.23875277       0.96695530
H        4.72125366      16.28477283      17.27550282       0.12534245      -0.05793307      -0.01822404       0.11439063       0.35736689      -0.10615808
H        4.74124274      17.88488395      16.31064686      -0.17013985      -0.10558695      -0.08707428      -0.73635286      -1.01986194       0.49181688
C       11.99314189      10.26957582      11.69732543       0.58299054      -1.07260488       0.41909982       1.46925116      -0.69064200      -2.58915806
C       11.59742730       8.86743625      12.08527873       0.44802961       0.32637367       0.04801686       0.09154093       0.80220550      -0.57806826
O       12.02390600       7.83702017      11.56512058      -0.06372994      -0.31216852       0.28388210       0.24905306       0.03389144      -0.15077949
O       10.68753590       8.90887771      13.06186841      -0.19675347      -0.32076776       0.60693077      -0.68776745      -1.03350067       0.47103107
H       10.24966345       7.93962454      13.14429232      -0.16102234      -0.05657094      -0.03721380       0.42262220       0.18914354      -0.33466980
H       13.02050460      10.49076924      11.99989759      -0.06243167       0.17667617      -0.24410044       0.10759509      -0.13497140       0.32240325
H       11.34396203      10.95595424      12.12416617      -0.08362634       0.21459200       0.13950255      -1.19492185       1.48401058       1.18641412
H       12.00868042      10.51725321      10.57632636       0.07814351      -0.07921239      -0.18805601      -0.20520912      -1.00670385       1.18518114
C        6.26815747       7.20030629      -0.65796279       0.11914229      -0.22347012      -0.01853636      -1.15615189      -1.59443212       0.54450345
C        5.81097164       8.47934782      -1.21728943       0.00319157       0.72100118       0.69218598       0.27439988       1.31163073       0.55122876
O        5.20297555       8.37700790      -2.41031913      -0.92470270       0.97647918      -0.25581380      -0.84293187       1.81645000       0.75419891
O        6.00716573       9.54266211      -0.56189919      -0.16528552       0.34641920      -1.03988148      -0.47447771      -1.09709525      -1.47034180
H        3.19519550       4.86171076      -1.31955422      -0.12622637       0.12238898       0.22370561       0.05816868      -0.01594341      -0.16177553
H        7.27025066       6.94077983      -0.86968847       0.19992722      -0.23682817      -0.00909374       1.83693480       0.32028869      -0.12558743
H        5.78919842       6.34548530      -1.16647084       0.13801478      -0.18407785       0.04287096      -0.59177697       0.25625008       0.31257373
H        6.10945177       7.15713153       0.43775504       0.10820635       0.11508624      -0.05393395       0.05277959      -0.04165386      -0.41043675
C        8.26365505       6.16583410       3.33454640      -0.17279834      -1.07957278       0.73775513       1.37883830      -0.67735547       1.41889620
C        6.96536426       5.60355414       2.97906094       0.42813703       0.17128139      -0.29539142      -1.72920299      -0.90306866      -1.92365861
O        6.91025136       4.28520495       2.50343611      -0.61522137       0.25159878      -0.58272075       0.78366446       1.29679966       0.86137640
O        5.91388391       6.25183777       3.01258401      -0.38289139       0.75628020      -0.90482000       0.48394680      -0.24291885       0.12150867
H        7.80431588       3.82081308       2.69681619       0.08921933       0.18693477      -0.08407269      -0.36461568       0.08979738       0.50498068
H        9.16238259       5.89701129       2.79722194      -0.10324916      -0.03054926      -0.14732571      -0.01727039      -0.72522599      -0.83296108
H        8.44145215       5.75966141       4.34478430       0.05792753      -0.10966242       0.03642746       0.27686501       0.15712053       0.32484859
H        8.31452166       7.22355227       3.42933897      -0.02196431       0.18114868       0.13084985      -0.68001568       1.16156507       0.11776260
C       14.11684227      -1.01693096      14.54372857      -0.66601022      -0.21147166      -1.45209453      -0.32708958       0.49600369       0.06439620
C       14.02673773       0.04526565      13.42773833      -0.26777488      -0.71472607      -0.23997908       0.01496676      -2.44918203       0.89859110
O       13.51467751      -0.22407506      12.33034350       1.56910368      -0.16558506       0.87362702       0.10639858       0.48705083       0.07089639
O       14.65008797       1.13913693      13.76575991      -1.09654497      -0.15875154      -0.17892015       0.21157122       0.14316815       0.64056325
H       14.61579518       1.74522888      12.92196635       0.16451351      -0.08461808      -0.00085145      -0.11996017       1.02943754      -0.51154941
H       13.12211268      -1.37952422      14.84982846      -0.19338193       0.26110545      -0.03218859       0.03312039       0.01242539      -0.39150441
H       14.55549587      -0.54953255      15.44803951      -0.17268354      -0.07072917      -0.01634406       0.24603546      -0.49023455      -0.43900210
H       14.68946387      -1.88585994      14.15972820      -0.12894526      -0.11985590      -0.13123479      -0.07443523       0.36357206       0.51055419
C        7.71347805      10.36692316      14.27867874       0.01188651      -0.22511904       0.37123175       0.98484409      -2.24470115       2.44703341
N        7.05010187      10.44251883      13.02301021      -0.33943657      -0.79825889      -0.39274049      -0.67145121       0.74670905      -0.10268462
C        7.26213788       9.65105624      11.91138023       0.74872366      -0.50110683      -0.47404014      -0.01802805       0.18736118       0.33012077
C        6.70670783      10.37832055      10.88246978       0.82775917      -0.12329024       0.26371426      -0.03966129       0.83246976       1.50049770
N        6.14111926      11.57457456      11.31674430       1.44266184      -0.20580660      -0.47704472       0.36969095      -0.51068747       0.78140640
C        6.32784397      11.56560970      12.63816750       0.26855894       0.37203146      -0.65438153       0.55981970      -0.67382145      -0.49144363
H        8.10252187      11.31941124      14.57881811       0.01836208      -0.18874584      -0.34217011       0.17676327       0.93052888       0.07764924
H        8.63681251       9.68420264      14.24567783       0.15435522       0.34505498      -0.05283384      -1.32723451       0.75071609      -0.24153918
H        7.06541909       9.99913037      15.15936423      -0.11286363       0.09677537       0.08858964       0.65106630       0.39588878      -1.39449334
H        7.71637451       8.65830910      12.02364571      -0.25813586      -0.20354453      -0.08890303      -0.15651524       0.54803777      -0.28417352
H        6.53750674      10.09733986       9.90986390       0.17489099       0.00850228      -0.30516796      -0.11865606      -0.71490479      -2.13795137
H        5.94870451      12.28332975      13.36209411       0.25348040      -0.17405771      -0.43631132       0.23102579      -0.03323904      -0.50660676
C        9.06893602      18.39922049      16.10549641       0.03883721      -0.15077398      -0.41953506      -0.44058245       0.17075855       2.98287296
N        9.92692605      19.51437598      15.74018318       0.52646538      -0.36613483      -0.28261612      -1.05442846      -1.50201726      -0.35255498
C       11.28111124      19.47115914      15.88227245       0.44448572      -0.37736812      -0.60475259       1.06010377       2.57403970      -1.19241297
C       11.76061291      20.58136418      15.15249436      -0.17615301      -0.40178075      -0.56965916      -1.46911287      -0.96957147      -0.04552290
N       10.65917198      21.15159775      14.52772206      -0.12576040       0.04755509       0.05723348       0.02478683      -1.32379508       1.32079577
C        9.56176463      20.46944605      14.88157548      -0.72416335      -1.22424515       0.48087470       1.79201186       0.64025456       0.36137158
H        8.04494796      18.57720208      15.89011076      -0.38279719       0.19975854       0.16726923      -0.98663902       0.42987931      -1.11357403
H        8.95753317      18.34602438      17.24859160      -0.23105687      -0.00759068       0.04680269       0.87616533      -0.14253488      -1.36373389
H        9.37015321      17.44659326      15.70418924      -0.12862476       0.07336997      -0.22291551       0.39408851      -0.40764785      -0.24889508
H       11.78891582      18.66311248      16.35026803       0.00411172       0.51340933      -0.07770301       0.16036651      -0.45506549       0.46828461
H       12.71558861      20.96034967      14.89651112       0.23049800      -0.13548680       0.16734257       0.94761980       0.11104073       0.15037066
H        8.64162148      20.70105939      14.47115620       0.17855181       0.10565587       0.14355126      -2.02044201      -0.05969729      -0.54956967
C        1.21596489       6.28986363       7.93191699       0.07114499       0.27592146      -1.32679653       0.53707170       1.00447404      -0.53722966
N       18.67313831       6.98170672       8.19164058       1.30465466       0.02792623      -0.27523527      -2.87610936      -1.39820528      -0.17650163
C       18.33211520       8.28034992       8.50722058      -0.29532902      -0.83808824      -0.62406093      -0.22730350      -0.38616830       0.25029689
C       16.95091075       8.42674574       8.28726647       0.03833546      -0.15921252       0.40630312       1.96696758      -0.87384963      -0.42213655
N       16.43572270       7.21221032       7.82162755      -0.93293068      -0.73559751      -0.76730307       0.43641520       0.43481627       0.40851250
C       17.47583634       6.37528827       7.81774387      -0.12870928       0.62656270       0.65219947       0.53119588       1.47761726       0.57385111
H        1.69707915       5.71320475       8.69526677      -0.13343155      -0.08392464       0.01612661      -0.43492949      -0.28016698       1.23459041
H        1.83517150       7.14336074       7.75151895       0.30922671      -0.12746111       0.00697849       1.28498721       0.07131821      -0.70729446
H        1.14136446       5.62884059       7.07101515       0.25331630      -0.03418064       0.01979481      -0.18466493       0.32201797      -0.30781859
H       19.05340152       8.85928759       9.04396243       0.01043972       0.06420847      -0.30762327       0.21004482       0.64477813       0.10773413
H       16.43522394       9.36539113       8.39953926      -0.21077187       0.01338729      -0.30644898      -0.60496104      -0.02544415      -0.12005018
H       17.47591415       5.31854717       7.82359911      -0.08038776       0.01408257       0.10826862      -0.48512834      -1.13210166      -0.36164773
C       11.32559404       2.96666234       6.30452942      -0.22528473       0.14144983      -1.04850121      -1.38335717      -1.30715239       0.04284811
N       10.63476209       2.57852005       5.01365372      -0.22805108       0.63991686       0.27532592       0.65425569       1.71354830      -0.42472541
C       11.29016771       2.52196783       3.73655159       0.45617745       0.11367430       0.75659790      -3.12231541       0.25254202       1.23601472
C       10.21774055      21.41979980       2.84081674      -0.90797062      -0.12943753       0.30524172       1.79883814      -0.16385847       0.57531548
N        9.03198412      21.59312269       3.50510968      -0.09477394       0.48335695      -0.53600528      -0.58762193       0.40646029      -1.10588491
C        9.28310524      21.54585292       4.78901187      -1.36060060      -0.13275684      -0.52389378       2.40054297      -0.83789027       0.29353660
H       12.24783490       3.52470765       6.19005116      -0.07771122       0.12510184      -0.14587580       0.33003432      -0.13750130      -0.53606737
H       11.44869926       2.00107946       6.84469301       0.00140522       0.15637154       0.10367828       0.28574434       0.85062027       0.07969230
H       10.67280408       3.62175873       6.90429150      -0.24804674      -0.07962132       0.19921614      -0.17482418      -0.26970714      -0.22148412
H       12.34705019       2.36828810       3.72118967      -0.03320464       0.16693931      -0.07194386       0.40643144      -0.06000838      -0.36034158
H       10.27336701      21.51374950       1.77094306      -0.14659683       0.00399154       0.21206274      -0.04776010      -0.08694290      -0.27685845
H        8.62673919      21.59597771       5.61562481       0.00838038      -0.19075865       0.05940208      -0.85930169       0.12962876       0.60503894
C       -1.45457992      12.54813377      13.12708834       0.44804404       0.48611317       0.15648020       1.91928267      -0.87591320       1.03324485
N       -0.33224987      12.03787834      12.30237859      -0.16465442      -0.83318684       0.10776514      -2.33613920       1.47532809       1.84767282
C        0.88726567      12.62114435      12.42141175      -0.78544689      -0.01741420       0.22729078       1.64385295      -1.99986231      -0.99141854
C        1.66549966      11.90583767      11.50924272      -0.49840880       0.44080734      -0.16028749      -0.74092567       0.46958384      -0.02039233
N        0.84705597      11.01848779      10.81452106      -0.95498557      -0.01214138      -0.42443875       2.75464392       0.01413548      -1.85635257
C       -0.35301538      11.19947428      11.23598420      -0.32944605      -0.50051455      -1.14258607      -1.43236637      -0.99668425       1.53374648
H       -1.38547320      13.56620146      12.91586024      -0.10949550       0.05527789      -0.20823407      -0.69328821       2.05652380       0.08041131
H       -1.40722470      12.36355616      14.22952557       0.23370706       0.33622555      -0.07961783       0.60246801      -0.04194160      -0.77765381
H       -2.35106445      12.12378053      12.83737037       0.02100875       0.08273800      -0.29251074      -1.96514308      -0.83249253      -0.96218765
H        1.16149321      13.40148414      13.09159554      -0.04000670      -0.03087246       0.02476578      -0.22921777       0.48271018       0.43031240
H        2.68550554      12.10759075      11.21597740       0.05249076      -0.11856631      -0.00845633       0.01890743      -0.17975855       0.09940079
H       -1.21103637      10.56501765      10.99140108       0.09112230       0.20192961       0.14001441       0.12120134       0.40107208       0.06092344
C        2.47120703       8.50948506      12.71516571      -0.86995168       0.19413697      -0.87437754       0.69729865      -0.54940313       2.96167827
N        2.81351136       8.42221661      11.32333046      -0.77577172      -0.25236703      -1.52767561      -0.48749721      -0.78493613       1.04524314