640
Lattice="19.152215 0.0 0.0 0.0 19.152215 0.0 0.0 0.0 19.152215" Properties=species:S:1:pos:R:3:momenta:R:3:forces:R:3 energy=-80136.3515625 stress="-0.013255144469439983 9.543385385768488e-05 -1.5760695077915443e-06 9.543385385768488e-05 -0.02159196510910988 -0.0010531068546697497 -1.5760695077915443e-06 -0.0010531068546697497 -0.01795460656285286" pbc="T T T"
C       13.41688367       7.46219194      10.63333304       0.33462970      -0.51695262      -1.51173347      -0.72924912       0.70136070       0.42122710
C       12.08686133       6.74150054      10.60451553      -0.13154166      -0.17162053      -0.59128257       0.83769286      -1.98866355      -0.32294789
O       12.01947698       5.52107061      10.96968263       0.34762512      -0.12430919      -0.60356471      -0.17548460       1.56871843      -0.08991563
O       11.10106238       7.37251518      10.03068857      -0.02126872       0.60833559       1.25150109      -1.31081319      -0.45933890       0.78221071
H       10.14744265       6.74802862      10.24874241       0.03361892      -0.03778246      -0.10965171      -0.04194057       0.86623299      -1.03791451
H       13.84177363       7.37784249      11.64920364       0.07763045       0.26138746       0.17609123       0.25348973      -0.12730804      -0.54126370
H       13.32720390       8.51696884      10.34723831       0.03578262       0.22463441       0.41615043      -0.23202123       0.08771813       0.16668355
H       14.00508524       7.01454272       9.84446675       0.15315257       0.19543598       0.08038173       0.75359595      -0.43322089      -0.02574015
C       17.53684598       9.13409460      12.61856220       1.37828546      -0.63801606      -0.33069364       0.31748345       0.42049846      -0.91429740
C       17.30848864       7.63632990      12.83765526       0.59668010      -0.11624972      -0.25790066       0.69197130       1.24133646       3.80313492
O       17.40892364       7.19114491      14.06259183      -0.41010041       0.36594387       0.86443558      -0.36970243       1.06135094      -1.23967052
O       17.03195593       6.92330198      11.86162963      -0.41641095       0.24519828      -0.29098254      -0.73372877      -1.67780280      -2.12316370
H       15.49967327       5.83483764       6.95626639      -0.20665854      -0.24223280      -0.05960298      -0.13259208      -0.37850183       0.17087698
H       17.77207075       9.28598473      11.52723707      -0.08446691      -0.07597010       0.02416522       0.17412551       0.13704935       1.02712810
H       18.22569813       9.64618562      13.33856021      -0.14980946       0.20769609       0.20410082      -0.08908409      -0.82907003      -0.54491651
H       16.62801873       9.71794904      12.77789786       0.21785814       0.03361389      -0.15006664      -0.67975456      -0.21037050       0.04594210
C        9.14453714       8.87318292      -1.48487840      -0.84787085      -1.15905890       0.57262616      -0.07352704       0.17314938       0.86620897
C        7.72586161       9.06665724      -2.06056052       0.74520622       0.19366637      -0.42724564      -0.12087438      -2.05823851       0.93794084
O        6.87184805       7.94272100      -2.01370844       1.57493632      -1.15279799       0.63912522       1.12525749       0.76020628      -0.27669898
O        7.25470823      10.09898663      -2.47421064      -0.37264938       0.54213759       0.18186279      -0.02531004       0.85556722      -0.27654791
H        7.31764477       7.08588207      -1.69855373       0.24607700      -0.41665214       0.50972557      -0.12390441       0.19659138       0.15298077
H        9.21860839       9.22506227      -0.38625894      -0.16023984       0.28447358       0.23916951      -0.24146983      -0.28216314      -1.61947966
H        9.92267329       9.40348853      -2.07081216       0.30074366       0.24856519       0.28906137      -0.56734407       0.10934319       0.40021110
H        9.43447708       7.81394432      -1.48099950      -0.22158455      -0.07699749      -0.10895231      -0.15391591      -0.00757718       0.01810364
C       10.76502626      21.60400084      -6.08470301      -0.02065681       0.33737836       0.26892222      -0.02883422      -1.08785450       0.33981389
C        9.27783122      21.58467684      -5.66232637       0.59486085       0.78167607       0.19219164       1.34203839      -0.49165934      -0.20844594
O        9.03470951      21.49371288      -4.34291295       0.46506248      -0.74625084      -0.64973578       1.76053286       0.18378276      -1.10599434
O        8.44060590      21.55837712      -6.55944457       1.25466911       0.55843239       0.40668609      -0.83803177       0.19324850       0.10040104
H        8.02788396      21.64236430      -4.15903395      -0.06909040       0.04366204       0.06610656      -1.14347339      -0.10682659       0.26623997
H       10.85075156      21.04140179      -7.06218379       0.02333595      -0.10657049      -0.15422966      -0.01460573       0.83653760       0.99442381
H       11.40642219       1.94546221      -5.32952134      -0.27667380       0.07582816       0.06638643      -0.29298884       0.15189645      -0.27748865
H       11.14104756       3.48029484      -6.16062017      -0.07975741      -0.10745968       0.08862575      -0.24033569      -0.15322620      -0.43632132
C       14.81479562      11.46465747      10.21340371       0.13079479       0.72571413       0.29281591       2.39637518      -0.15270269      -0.05703405
C       13.87167456      11.93561136       9.18053765       0.82120008       0.49588861       0.28130395      -0.99892902      -0.25640410       0.91286618
O       14.19912466      12.77706757       8.37548495      -0.85022288       0.17179973      -0.58103539       0.16195190       0.90216017      -1.37828529
O       12.61153480      11.40960271       9.26423399       1.02280537      -0.52155080       0.29615303       0.21313882       0.39980054      -0.39985794
H       12.03881076      11.97211164       8.64132359       0.06336840       0.26252799       0.05236828      -0.03631532      -0.22475088       0.20417309
H       14.42317462      11.12730730      11.14853361       0.15526217       0.08386917       0.10237078      -0.82645935      -0.86719263       0.47840405
H       15.41772605      12.35029691      10.55651892       0.00467654      -0.00284521       0.02846132      -0.19984066      -0.66473752      -0.68362248
H       15.52615344      10.70453054       9.72961341       0.18492281       0.21840966       0.22995909      -0.74929816       0.85105801       0.86501431
C        8.30410302       5.00796328       1.29465576      -0.28104906       0.71665497       0.55446227      -1.17521799       0.32496631       1.46236348
C        8.49047236       5.20523946      -0.15430135       0.39924758      -0.16249560       1.25849827       0.17951147       1.24226356      -1.22912133
O        9.67526936       5.03898765      -0.63491586      -1.00788659      -0.47864425      -1.04626223      -0.40064001       0.00126776      -0.39302325
O        7.49449447       5.64776733      -0.83807630       0.88268454       1.45552949      -1.05291862       0.40818715      -0.37762552      -0.10701656
H       13.23487095      -3.96284907       2.38153117       0.05442818       0.26833456      -0.01912771       0.34411764       0.45377359       0.30226994
H        7.69878746       5.87818923       1.71816532      -0.02398519      -0.19697289       0.08496581       0.79450983      -0.87320501      -0.39996865
H        9.25250358       4.89402813       1.82094629       0.05275047       0.03667219       0.00883803       0.04269785       0.00712150       0.16668475
H        7.65909545       4.12690097       1.47106841       0.16493259       0.07636582       0.14389695       0.24606532       0.03081489       0.04628166
C       15.21285905       0.44733889       0.45845997       0.34389107      -0.10511908       0.30691113      -2.25944066      -0.89736259       0.17352620
C       13.84579320       0.81845182       1.06606341      -1.09906744       0.21166967      -0.90807551      -1.00810695       1.05356431       0.36859041
O       13.42298851       1.99053815       1.29561591       0.06542123       0.87055094      -0.42376602       1.02466989      -1.81702101      -0.51327813
O       13.08963734      -0.26933852       1.42654224      -0.10707347       0.19230638      -0.45812425       1.39841485       0.77976489      -0.71645743
H       12.37836962       0.09087399       2.04984791      -0.09272426       0.23914848      -0.06951721      -0.80202270      -0.20995417       0.45300746
H       15.89250162       1.17853357       0.84821607       0.01355170       0.08269040      -0.00711640       0.94590259      -0.04325980       0.51900989
H       15.27122683       0.53819721      -0.63905659      -0.33084236       0.26767778       0.07336118      -0.26830578       0.06265539       0.19076073
H       15.23213809      -0.64301865       0.69147684      -0.15670871       0.12585948      -0.29727192       0.97819054       0.70706344       0.01861020
C        1.68226275       6.54628346      14.46101668      -0.52181935      -0.20110555       0.11683896       0.49670526      -0.31791675       0.74565148
C        0.90599339       5.20014061      14.40191481       0.33943784       0.01625385       1.19560603      -1.10152447       1.43919718       0.08766991
O       -0.44251409       5.21047312      14.56523674      -0.66612924       0.86709205       1.06307740       2.34075737      -2.39277744       0.64243323
O       20.59194671       4.14551833      14.13636903      -1.32646536      -0.56998830       0.43094095       1.06404054      -1.04890764       0.07092711
H        2.17019737       8.40940252       8.99816173      -0.18685055       0.15090448       0.11000896      -0.27887291       0.12439632       0.70037174
H        2.46427115       6.43942884      13.67826985      -0.05734303       0.48951615       0.06994454      -0.34526241       0.23188187       0.47578311
H        2.21668514       6.77998184      15.46368037       0.04378502       0.08267340       0.06592892      -0.96251178      -0.66185820      -1.31064773
H        1.05834534       7.42099786      14.25453804      -0.25739734       0.04930383       0.10827376      -0.26630813      -0.03820330      -0.10557190
C       -0.23344868     -11.42239474       8.96881003       0.12687467       0.58191758      -0.00661836      -1.58067954       0.32010409      -1.31740379
C        0.25573227     -10.03137923       9.22601076      -0.04590196       0.77588261      -0.23589494       1.57343554       0.56966972       0.97644931
O       -0.50698632      -9.08672686       9.42317512      -0.35437808      -1.09734918       0.83865579      -0.23545396       0.09462380      -0.23479062
O        1.62987347       9.32208262       9.34291396       0.08995061       0.59334883      -1.24893191      -1.34413004      -1.11085749      -0.99568307
H       -0.82092099       6.08759482      14.42788827      -0.05800501      -0.34054995      -0.03086233      -1.57367659       2.28311205      -0.46957532
H        0.45210370     -11.98354888       8.35046117      -0.23037571      -0.18868040       0.08476466       0.38687062      -0.27058724      -0.01034307
H       -1.22190801     -11.36411778       8.44088796      -0.05874875      -0.19457361       0.07344949       0.69856834       0.39914110      -0.09315965
H       -0.57913332     -11.98720055       9.82044545       0.13477947       0.12079587       0.01009180       0.42694294      -0.14026338       0.99188107
C        4.69644076      14.81664155      19.83832117       0.74157163       0.16630343       0.11789136      -1.00940478      -2.86169815       2.26774669
C       23.38686769      15.85875237      18.94608137       0.08067484      -0.62518540      -0.55758334       0.51183546       1.28723502      -1.57796073
O       23.70555368      17.02669429      19.10802018       0.22080306      -0.46995912       0.43325573      -0.03279412       1.37818325       0.18070287
O        3.51366194      15.55331994      17.82602351       0.73015873      -0.24527035      -0.59019380       0.76766914      -0.50747836       0.95581025
H       22.78673635      14.51942205      17.64481978      -0.01815313      -0.05770825      -0.10717782      -0.67294699      -0.00715673      -0.25161469
H        3.70729756      14.40006192      20.31994978       0.02532190      -0.30236479       0.07985045       1.88882351       0.29616371      -0.53015924
H        5.49291134      14.97705352      20.62535278      -0.10206271       0.00066344       0.18484307      -1.08944809       1.06159663      -0.66736102
H        5.18638220      13.99828211      19.30734555       0.25708573       0.22710823       0.16868072      -0.45722136      -0.40331730      -0.56173509
C       10.01593583      16.31101881      13.84392052       1.15272335       0.65428325      -0.32351743       1.81002378      -0.19481711       0.48626652
C       10.33355900      16.14282650      15.37757347       0.50939979       0.76916248       1.17021575      -0.69456226       1.07735503      -0.73400897
O        9.61961186      15.17759509      15.95399924      -0.07721486       1.31100233       0.98412791       0.18718657      -0.38223055       0.68040347
O       11.01508904      16.92566968      16.06277580      -0.11364039       0.12906477       0.11243411      -0.28534162      -0.88067949      -0.75518250
H        8.98668796      -4.44722335      15.30413458       0.31944800       0.20906568      -0.00497471      -0.04641509      -0.43245006      -0.37472910
H       10.45484092      17.28475482      13.57191126      -0.15915106       0.05088456      -0.16337133      -0.20749608      -0.17009926      -0.16270527
H        8.93150044      16.33969984      13.73038566       0.12426697       0.21346307      -0.21985519      -0.05953938      -0.13079298      -0.25159848
H       10.51626936      15.50482277      13.19984751       0.15010066       0.21019797      -0.16640849      -0.79327112       0.83953369       0.92171210
C        8.61338253      14.15347030      23.82387794       0.51542365      -0.05248192       0.34756789      -0.66480732      -0.51730418       0.53768629
C        7.21896231      13.62163684      23.50520880      -0.31841245       1.10725439       0.38437584       0.59041774      -0.20463753      -1.07766175
O        6.89803493      13.19338052       3.20873210       0.57816156       0.67280844      -1.16153387       0.23619503       0.78269255       1.04377031
O        6.39887717      13.66619875       5.38540745      -0.65492673      -0.11163644       0.54109622      -0.72112525      -0.23070252      -0.66565514
H        5.40483666      13.42934356      24.06972813      -0.25860287      -0.09087514      -0.00619335       0.12820554       0.31307644       0.71932840
H        9.35796543      13.39683543      23.51332600      -0.01948783       0.11611717       0.24175014      -0.11588579       0.61870003      -0.35275295
H        8.68014708      14.20327987      24.91642651      -0.07554121       0.13809612       0.17252898       0.09617920       0.21674810      -0.00536478
H        8.69260590      15.17892795      23.42271088      -0.33725132      -0.02307596       0.04980585       0.39787781      -0.53635818      -0.08782509
C       11.57573934       4.78251200       6.98026388       0.19230505      -0.94177159       0.77301558      -1.21693373       0.38995793       0.92474580
C       10.16132694       4.94165751       6.40244690      -0.26582218       0.14979180      -0.69997924       2.42458344      -0.21665974       0.07117593
O        9.18283878       4.84113952       7.26847534      -0.36576292      -1.44309125       0.18242077      -1.40476203       0.04746246       0.37086368
O       10.04730824       5.18565465       5.21252557      -0.20524379      -0.60348970       0.37266892      -0.86350995       0.30745468      -1.54327202
H        8.28751127       5.10820040       6.80282389       0.10797287       0.12923948       0.17405941       0.00251555      -0.16016695       0.28390771
H       11.49966705       5.13396312       8.02463655      -0.00743940      -0.04733526      -0.02061503       0.50038731       0.11606586      -0.13347405
H       12.30241538       5.32397046       6.37211159      -0.01109820       0.06226810       0.10974005       0.00205266       0.08995539       0.15499878
H       11.85596354       3.73984448       7.04707256       0.10867047       0.18499288       0.36436622       0.06712560      -0.59905624      -0.13245714
C        9.92314722      -2.54490403      20.00007035      -0.86446257       0.54030649       0.32619554       1.01952636       0.31727076       0.70724255
C        8.62471609      -2.59022660      20.75505644      -0.11907400       0.15623835      -0.61426500      -0.03258944      -2.42071700       0.01040273
O        7.62679995      15.94076143      20.29405202       0.58744850      -0.20266416      -1.32792385       1.14261627       1.88813460       0.99396574
O        8.74242661      -2.10062462      22.00541543       0.07120136       0.94569833      -0.79597180      -1.06588030      -0.16398245      -1.03775227
H       23.27737870       2.01798278      22.75788979       0.05240265       0.03756607       0.26543871       0.20548418       0.40746704      -1.10194373
H        9.70417326      17.18338245      19.11034764       0.02426799      -0.00918403       0.08219893       0.44016621      -0.02167994      -0.71212840
H       10.37890242      -3.53150437      19.77655923       0.09496574       0.13933240       0.11850698      -0.75270057       0.17511916      -0.13991377
H       10.69626017      -2.04072636      20.61998839      -0.21146237       0.13195697      -0.07703948      -0.39764160       0.10613173      -0.40933564
C        5.16858063       7.21795490      -5.06740000      -0.27699106      -0.08382563      -0.45189850       0.08755553      -0.30584154       0.99556637
C        6.29865471       8.01900365      -5.74278041      -0.78342419       0.89534013      -0.18165833      -0.44196534      -0.62094665       0.48369056
O        7.51697077       7.55600828      13.66597487      -0.56646489       0.35771034      -0.40036398       0.23981702       0.47471905       0.16611588
O        6.08157506       8.97391544      -6.47835433      -0.50796980       0.52592615       1.04708459      -0.39516512       0.74567473      -0.33499002
H        9.84122024       5.47947549      -2.10153706       0.20258198       0.07761470       0.16905480       0.16197228      -0.82251900      -0.34721363
H        4.85364407       7.61321979      -4.02157667      -0.08124965      -0.02151167      -0.00725815       0.66057956      -0.16513562      -1.76453650
H        5.50318676       6.17858106      14.29945198       0.03266974       0.02403533      -0.23407716      -0.02914363       0.52678251      -0.30989361
H        4.31324513       7.17679332      -5.76029867       0.11339535       0.10747690      -0.05873034       0.12798417       0.24703838       0.32989222
C        2.87096790      21.29505340      11.78058623      -1.14308091      -0.34541057      -0.33524835      -1.13762879      -0.89549875      -1.09606743
C        1.88797231      20.26123717      11.15468408       0.22972922      -0.89877096       0.12463449      -0.58838743       0.47952425       2.51399374
O        2.33927386      19.24442045      10.69530516      -0.66415101      -0.87006853       0.96862931       0.54548085      -1.75064254      -1.74507749
O        0.55672751      20.39614348      11.46962353      -1.04267010      -0.95431125       0.80637922       0.39038491       1.00441694      -0.12740844
H       -0.03182029      19.54056534      11.38843267      -0.07835873      -0.04594003       0.12580536       0.65309775      -0.16170943      -0.25650638
H        3.78141143      20.68672142      11.99239434       0.24642541       0.27633391      -0.32324725      -0.58030212       0.60129720       0.72319227
H        2.31105483      21.92069626      12.48326237       0.04528308      -0.06221924      -0.25270781       0.48605093      -0.23759288       0.59538364
H        3.19918244      21.96085298      10.99946290      -0.32740016       0.08676306       0.20415022       0.10871965       0.58997583      -0.79790241
C       -2.13763320      11.65878845       5.95202218      -0.33678481       0.48341342       0.83331846      -0.74574590       0.33364487       0.97865176
N       -1.45681109      12.81694344       6.42859355       0.06511335      -0.38508503      -0.96246515       0.13038254      -2.18115902      -0.01949954
C       -0.80840254      12.97146532       7.60728710      -0.36759605      -0.66529404       0.82971551      -0.12988806       0.65252703       1.87333226
C       -0.37961323      14.29943547       7.60526306       0.55782935      -1.18112184       0.10180434       0.18245275       0.18629420      -0.99872077
N       -0.74480594      14.86103400       6.36771282      -0.07388961       0.55312052       0.81385453       0.09093370       0.08302733       1.01142883
C       -1.42532076      13.89605768       5.71101699      -1.73217580       0.05348711       0.22352258       1.18360066       3.90951800      -1.27054381
H       -3.16505537      11.93321333       6.13686054      -0.01163263      -0.00627187      -0.18160764      -0.77623874      -0.74422908      -0.41635260
H       -1.83603323      10.81980695       6.53073058      -0.28250816      -0.04487943      -0.21997771       0.13395065      -0.95985389       0.58038294
H       -1.86247934      11.49413706       4.94362362      -0.32380213       0.19405235       0.08297132      -0.05346276      -0.32091984      -1.30806196
H       -0.98882374      12.23768866       8.41780354       0.30970326       0.16374114       0.07222496       0.48493275       0.45470947      -0.52253735
H        0.19901171      14.90280055       8.32795453      -0.10310829      -0.01348765      -0.29503561      -0.52511930      -0.61309552      -0.39231870
H       -1.73876895      14.06342592       4.66550570      -0.10418478       0.23708058      -0.02367491       0.05025780      -0.63690674       0.97750968
C       10.64412213      20.89071667      18.47132950       0.39893728      -0.49707104      -0.65539830       1.09441864       1.13713336      -1.55382431
N        9.58097684      19.97174666      18.12990074      -0.61735358      -0.44093786       0.27430041      -1.17693412      -0.22742486       0.29974878
C        8.50066434      19.55427689      18.95970469       1.11191620      -0.86422058       0.05958688       0.36434659      -0.58460116      -3.97937107
C        7.65883467      18.80702311      18.15286313       0.20678360       0.18115606       0.45881125       1.65979683       0.31682190      -0.35138762
N        8.26039473      18.75309719      16.91104863      -0.13798452      -0.59309621      -0.36770721       0.30743760       0.38391137      -0.64829719
C        9.41297761      19.45770250      16.89201703      -0.33887831      -0.62951508       0.97796952      -1.49066615      -0.34571248       1.36660373
H       10.60567418       2.77766346      18.04031234       0.02365245      -0.16178530      -0.25536081      -0.89084017      -0.83395511       0.10842958
H       11.59049791       1.36833089      18.06035190      -0.03419768      -0.06826180      -0.04107507      -0.01095939      -0.29546046       0.31041646
H       10.72260658      21.01678668      19.51347001       0.06316810      -0.41150275       0.10282190       0.06704415      -0.18038705       1.49252081
H        8.41783078      19.84696063      19.92035834      -0.04675920      -0.10143994       0.14521669      -0.14849916       0.97033781       3.17021465
H        6.81182399      18.16822896      18.27107293       0.23090075       0.03695399       0.04372448      -0.57988811       0.00748450       0.84575564
H       10.00238316      19.71567497      16.04990476      -0.07085588      -0.19912595       0.10235629       0.35131890       0.01539564      -0.59094292
C       21.92609787      18.22756144      21.86231101      -0.01416949       0.29861405      -0.39716007       0.75764465      -1.17958403       0.00362262
N       23.24017578      17.78392162      22.43900041       0.62670446       0.09882847      -0.97627456       0.66280079      -0.02100269       0.10635674
C       23.49427534      17.35711168      23.73481606       0.12909145      -0.79640571      -0.13277302      -0.22822124      -0.47767198       0.12367246
C       24.86426061      17.08941738      23.74157707       0.37629230       0.61580457       0.87689220       0.13073874       0.38573447       3.98902559
N       25.49803017      17.60933747      22.67744843       0.36698004       0.20002129      -1.19803873      -0.91548401      -0.51878870      -1.53775060
C       24.49374575      17.95223053      21.87258006      -0.59101471      -0.30817162      -0.07053395      -1.49463391       1.52792859      -2.84223604
H       22.18069101      18.62161186      20.89446413      -0.11664128       0.19461125       0.03599037      -0.00739666       0.32568118      -0.63807201
H       21.57188590      19.01299713      22.50322147       0.03519497       0.05384083      -0.12441141      -0.54142940       0.31733567       0.32768962
H       21.16466142      17.40211073      21.70290542      -0.13100210      -0.02195015      -0.16703808       1.06346583       0.64557236       0.63459897
H       22.74459993      17.54592792      24.53247422      -0.04588684      -0.30196782       0.24759907       0.68667507      -0.46927333      -0.56107289
H       25.49377112      16.78630254      24.61436069      -0.14882971       0.22200095       0.30426160      -0.86265802      -0.11256866      -0.70940912
H       24.47571868      18.33884118      20.80390930       0.23365158      -0.00423240      -0.16411464       0.71000808      -0.65954936       1.61455691
C        6.64659098      12.26572011      11.35915032      -0.12283267      -0.94912406      -0.67703823      -0.99409986      -0.44400862      -0.71083224
N        6.87095400      12.79560962      12.69398810       0.71128372       0.46698040      -0.11231408       0.37763375      -0.79805291      -0.12222302
C        6.51600996      12.13208930      13.84274551      -0.74529873       0.19493869       1.83389675      -0.60076392      -0.33346635       0.51851773
C        7.25976983      12.65777561      14.88386665       0.43433961       0.53823936       0.04123629      -1.01824534      -0.13812543      -2.57660747
N        8.06613032      13.63361616      14.38022087      -0.47949515      -0.18690319      -0.04210834       0.67002326       0.45036289      -0.72655421
C        7.84503482      13.64941856      13.03670626       0.53887823       0.19363041      -0.41737413       0.19419083       0.61841959       2.43468142
H        5.74348777      12.75074487      10.89386097      -0.32233990       0.18615348       0.04217866       0.55982858      -0.65176398       0.42629325
H        6.55744452      11.14308759      11.42932191       0.11421406       0.02605726       0.08393396      -0.19119978       1.03809416      -0.04814211
H        7.49248831      12.48991871      10.71460062      -0.03257979      -0.23711517       0.38843403       0.38982201       0.09824118      -0.10764325
H        5.80386650      11.31729395      13.81306254       0.14724259      -0.12249017       0.03966546       0.11101697      -0.04698554       0.02360451
H        7.17860490      12.28858991      15.84405020      -0.20037925       0.02113338      -0.14006683       0.33394128      -0.22347325       2.13490701
H        8.35882669      14.31767291      12.41497803      -0.14732062       0.18454000       0.29627055       0.45286942       0.67990321      -1.14480329
C        4.26932299      16.59426328      12.65253941       0.85939619      -0.25048654      -0.07046558      -1.08496594      -1.00182927      -0.67089474
N        5.30460026      16.59303273      13.69458884      -0.92660084       1.29273355       0.16085179      -0.32767439      -0.08161554       1.21888840
C        5.28955664      15.76278284      14.84444243       1.77564396       0.72807808       0.62892720      -1.34729779      -0.42041200      -2.03290439
C        6.19280012      16.31456803      15.67825568      -0.24868820      -0.11238558      -1.02265098       1.10509562      -1.31004643       1.98330498
N        6.83989642      17.37611386      15.12007804      -0.61980331       1.58658522      -0.06176234      -0.31788045       0.87826896      -0.24584287
C        6.21550666      17.59739508      13.97112218      -0.23586430       0.77285470       0.41889959      -0.65743279      -0.49314275      -1.08099854
H        3.20637422      16.70751498      13.05910388      -0.08396964       0.16350709      -0.03692983       1.44128323       0.19108352      -0.08689815
H        4.21615703      15.64160265      11.99902447       0.24140946      -0.03062550       0.33846193       0.53433466       1.20872021       1.06651545
H        4.51896311      17.41044307      11.98299007       0.08501534       0.02330837       0.06438063      -0.23502158       0.28575665      -0.24433681
H        4.65607088      14.85236061      14.81011121       0.52531397      -0.04079357      -0.05375295       0.65386128       0.82849884       0.37424582
H        6.50847899      15.94509225      16.66244860      -0.08059449      -0.19334557       0.20158247      -0.32924160       0.09112051      -0.37050617
H        6.22578828      18.50701998      13.38608313      -0.15122961      -0.03911727       0.20468630       0.27945340       0.03228378      -0.11969262
C       18.29632965       2.59380561      16.36871572      -0.23004056       1.26941935      -0.53348588       0.98191631       0.12006970      -0.43217656