640
Lattice="18.700606 0.0 0.0 0.0 18.700606 0.0 0.0 0.0 18.700606" Properties=species:S:1:pos:R:3:momenta:R:3:forces:R:3 energy=-80125.7890625 stress="-0.022949133068323135 -0.00042566924821585417 -0.00038586417213082314 -0.00042566924821585417 -0.021892283111810684 0.0015241107903420925 -0.00038586417213082314 0.0015241107903420925 -0.021912431344389915" pbc="T T T"
C        3.41309571      11.84108782      14.83774538       0.96432424       0.17798808       0.13359030      -0.26582652      -0.90946746       0.41100711
C        4.27117725      10.56380788      14.80348341      -0.06731741       0.21633055      -0.51289677      -0.85584533       0.46317708      -0.64036989
O        3.76564215       9.47290995      14.55437856      -0.33627379       0.80842399      -0.05615669       0.17985755      -0.43378139       0.13833058
O        5.60420403      10.67650464      14.98283715      -0.58860854      -0.15131794      -0.48651013      -0.86535633      -1.27177048      -0.14771476
H        5.82340407      11.61322356      15.23522945       0.18316957      -0.34301568       0.19514336       0.77794826       1.11596096       0.10840526
H        2.73799908      11.87114654      13.93342352       0.12076573      -0.20480519      -0.07927931       1.33846080       0.54585212       0.38119590
H        4.02769826      12.70687321      15.15270240       0.10827715      -0.22806916      -0.11245675      -0.60103023      -0.07334304      -0.67409700
H        2.62442677      11.68397075      15.59459140      -0.08724640       0.14782918      -0.01284457       0.43463609       0.01260429       0.28799096
C        3.46013936      16.08428505      13.17354252       0.46678915       0.28712321      -0.61033298      -0.31639251       1.13891888       0.74635631
C        2.58770602      -3.85604893      13.37433116       0.13243944      -0.58037197       1.00171786       1.49843788       2.01402283      -1.61382115
O        2.56088948      -4.65567295      12.45143069      -0.81778521       0.07192612      -1.24604361      -0.89893323      -1.40155697      -0.05956793
O        1.91422053      -3.83259240      14.49008063       0.66467666      -0.71453649       0.90595203      -1.15721595      -0.45283365       0.72896099
H        1.21692841      14.07914973      14.54090953      -0.09946428      -0.04570369      -0.23430215       0.34701598      -0.03804255       0.69268948
H        2.86976177      17.01107158      12.98508785      -0.17942583       0.20375703       0.07093494      -0.27379701      -0.57078838       0.11689508
H        4.04892339      15.99486102      12.27297031      -0.09938111       0.15277312       0.04278029       0.49064317      -0.43900043      -0.19100535
H        4.05791306      16.36210760      14.05683385      -0.18383322      -0.10915001       0.14746232       0.11214423      -0.38491419      -0.19805956
C        7.93702122       9.81834132       4.59924389       0.36941129       1.13973877      -0.46557709      -0.38935778      -0.59165698      -1.02876008
C        8.33438134      11.03941487       5.33174065       0.21532243       0.23563638      -0.48381124       1.05080223       0.76735449      -0.18062544
O        8.00026167      11.29955055       6.48126355      -0.35972178      -0.28013884       0.47303415      -0.61027509      -0.01890457       1.21257281
O        9.16981412      11.84616350       4.66021468      -0.21877852      -1.61744636      -0.87501858      -0.23447752      -1.42314219      -1.07720888
H        9.30115172      12.74209447       5.09680467      -0.12585039      -0.47782904      -0.13086580      -0.03723961       1.07784534       0.52871865
H        8.67651314       9.02866831       4.87209826       0.06604448      -0.16819345       0.05186864      -0.51611120       0.17472702      -0.31346115
H        7.99661615      10.04724954       3.50233144       0.08548477      -0.02112416       0.14329322       0.07769233      -0.33927840       0.81950432
H        6.89351958       9.49470609       4.83571523       0.18887177      -0.26187940       0.07269945       0.85867476       0.13324127       0.13455153
C       17.85119125      16.89192981      15.20136452       0.23762593      -0.18417867       0.51984182      -0.09946132      -1.06186056       0.55107552
C       18.18440391      17.38066546      16.60952985      -0.45572043       1.19466878      -0.22812525       1.52177668      -0.49068946      -0.69955218
O       19.34931769      17.75226495      16.88911077       0.58180568      -0.48753830       0.56552437      -1.43691254       0.01983374      -0.18403608
O       17.24782626      17.17322548      17.54466711       0.83587335       0.01739817       0.41224720      -0.64044362       0.12781954      -1.22138619
H       16.43784595      16.77379087      16.97408569       0.28958119      -0.08312983       0.19347314      -0.32829976      -0.07101226       0.99985296
H       18.63566362      16.99073927      14.49543388       0.01700360      -0.04347582      -0.02074448       1.19838202       0.90352076      -0.53331304
H       16.90451346      17.16489338      14.74133149      -0.02023201      -0.01985056       0.09844883      -0.12730801       0.26572350       0.44378936
H       17.92728967      15.79503943      15.26057964      -0.20697117      -0.06928499      -0.12804417      -0.64243549      -0.30901513       0.20035419
C        6.41611071      -0.26002524       8.90020729       0.39808734      -0.15967231       0.91204175       1.36701715       0.72840422      -0.84236735
C        5.74761888      -1.54284410       8.54849552       0.33675929       0.05322147      -0.66347821       1.55488944      -1.15358293       1.15347338
O        6.46983281      16.07425870       8.75460505       0.32156646      -0.45624108       0.39080633      -1.58750105       1.49423456      -0.39624426
O        4.53449499      -1.52545574       8.19129098      -1.31280761      -0.39198560       0.53599424      -0.63055420      -0.36761227      -0.21577990
H        3.59376523      -1.56132596       9.24692294       0.10290147       0.02253989      -0.05194290      -0.91583395       0.42057240       0.84130836
H        7.47456983      -0.31381096       8.50385163      -0.24029876       0.28544711       0.12794657      -0.97735494       0.42205131       0.42689654
H        6.49059667      -0.08042392       9.97521656      -0.05478741      -0.05988432       0.04345106      -0.03448822      -0.38384089       0.17130211
H        5.86841896       0.60303587       8.50026878      -0.23115829      -0.01163989       0.27435834       0.17089039      -0.03254652      -0.22228599
C       -6.40139816       2.67186365      11.75165094      -0.09001813      -0.34714159      -0.25737011       0.71148336      -0.54431081       0.60603648
C       -5.44442669       3.84832734      11.58393978       0.02418964      -0.19843564       1.06781798       0.83168966       2.25999784      -0.19420668
O       12.86306857       5.12764317      11.69106352      -0.81607511       0.23602082      -0.92061828       0.29428041      -2.60041237       0.08303308
O       -4.21534967       3.60495075      11.34353284       0.34320799       0.25654428      -0.56097068      -1.05219507      -0.55248427      -0.15224725
H       18.22861609       4.41148488      16.52403081      -0.11322545      -0.07815247      -0.16315757      -0.39692581       0.23996747      -0.34734198
H       -6.07283712       2.11038712      12.66270116      -0.01606868       0.08308278       0.08071388      -0.21850280       0.27454495      -0.62448120
H       -6.36274839       1.98801903      10.90356287       0.15320325       0.08478412       0.02761468       0.29664421      -0.07712618      -0.25501230
H       -7.45203053       2.87149455      11.85181573      -0.04759819       0.21593023       0.12837120      -0.66232026       0.78364271       0.18215731
C        2.67176469       5.87747322      14.68399213       0.79616157       0.27700032       1.14563407       1.05050492      -1.47167611      -1.15878677
C        3.82853536       5.24527479      15.54972556       0.01271312      -0.23146618       0.60039707      -2.22512841       1.64745212      -0.81736016
O        3.40999969       5.31362239      16.85616866      -0.05823915       0.48926072       0.65212749       1.25631499      -0.96908611      -1.39152217
O        4.87749443       4.84760334      15.03731187      -0.03973786       0.05822418      -0.58485061      -0.55883288      -0.12928152       1.34036589
H        4.11707270       4.87792360      17.42602223      -0.03730508      -0.07496161       0.22214322       0.16059756       0.41611665       0.98699021
H        1.80600958       6.27854287      15.24348842      -0.17968701      -0.24890555      -0.03786821       0.62424791      -0.12481463      -0.19352871
H        2.35720012       5.03278734      -4.71721966      -0.01172858       0.11060261       0.50076537       0.01553103       0.75227666       0.84680367
H        3.15361363       6.56521945      13.94975084      -0.34248451      -0.23636280      -0.20804125      -0.37748748       0.11804855       0.68465972
C        8.82778007      17.93371083      11.83801460       1.86396620      -0.30605068      -0.53099476       0.04722136      -2.24497390       2.94339561
C        9.43121208      18.41801477      10.62246521       0.37521376      -0.16612669      -0.95260268       0.06213239       1.79595459      -1.51331520
O        9.96687977      17.74360420       9.73263954       0.53678644       0.27924916       0.13685774      -0.60428119       0.23111558       0.45845425
O        9.38538986      19.79185740      10.58941703      -0.62552274      -0.27029392       0.37169604       0.31607282      -1.18217587      -1.34967446
H        9.80231359      20.03148304       9.65676433       0.06536969       0.25693085      -0.11675454       0.29438132       0.17698878       0.34757006
H        7.84197398      18.24298185      12.24176461       0.17622688      -0.13154650       0.27410626       0.46022475       0.51751351      -1.00228858
H        9.54996671      18.25695404      12.62897854       0.04333052       0.22046002      -0.01677439      -0.49787918      -0.11093709      -0.00107169
H        8.83393892      16.80934239      11.93232645      -0.09828330       0.06560926       0.23148524       0.18847451       1.04880309      -0.69877458
C       -0.42186378      11.58277326      22.10680687       0.16468163      -0.76819157       0.22351577       1.51829004      -1.24768209       1.54952538
C        0.51664121      12.37299521      21.27038848       0.18469789       0.50957714      -0.97815510       2.09762335      -0.25706604       1.11178195
O        0.02156616      12.85478291      20.13579929       0.78657757      -0.01000841      -0.72511824       0.44082344       0.41776550       0.31248200
O        1.72457168      12.54843153      21.61955725       0.20386275       0.02865957      -0.16501197      -1.52335250      -0.37481672      -0.17121479
H        4.65917732      11.04373631      18.83804544       0.43263166       0.00629938      -0.08216295       0.90032351       0.90274847      -0.01180500
H       -1.35821593      11.73025633      21.71675595       0.02981284      -0.17756769       0.00335020      -2.57217264      -0.35010049      -1.19157100
H       -0.54052629      11.98169629      23.11992995       0.23274411      -0.29458086       0.10751213       0.61977720       0.27342728       0.25974345
H       -0.12184229      10.49066084      22.27556747       0.13808363       0.29364934      -0.19474615      -0.42405716       1.32989323      -0.48819333
C       15.66267760       1.85484565      16.17164824      -0.14302566      -0.32800040      -0.07367013      -0.62091398      -0.24140856       0.92740321
C       15.56596520       1.48310485      14.66789949       0.26970196      -0.76542437      -0.54367833       1.71394694      -1.88376963       0.99614298
O       16.18539865       0.48100545      14.19467026       0.95479222       0.79344780      -0.55243821      -1.10064280       1.86771953       0.59367824
O       14.80356835       2.24129986      13.94165720      -1.00413967       1.08558254      -0.17355380      -1.07914639       0.67540330      -0.36010599
H       15.74025637       4.53956869      11.50390740      -0.05705968      -0.27591624      -0.02495181      -0.79465759      -0.78584671      -0.30384326
H       16.17433818      19.71007830      16.63345328      -0.10928742      -0.38612823      -0.12216816      -0.23051874      -0.41495386       0.32740217
H       14.62624107      20.69970201      16.65239839      -0.28218166      -0.00341806      -0.00586609       1.51835680      -0.19266525      -0.72483814
H       16.31827513       2.71668895      16.48385483      -0.11080651       0.00929094       0.07086587      -0.91078949      -0.38003790      -0.73875821
C       17.03616194      15.79144252       1.71881147      -0.17684022      -0.38831970      -0.58311153      -1.60515356       1.55045795       1.96829796
C       16.13334258      14.86809460       2.51032777      -0.13722663       0.02179352       0.30204296      -1.05027890      -1.26685131      -0.75590229
O       16.38628247      14.82416552      22.53743836      -0.15549324      -1.23727695      -0.12556719       1.66807795       1.65956664      -1.37383282
O       15.22909446      14.17695950       1.98600542      -1.43373622      -1.29720477       0.69031906       0.86442518       0.65444744       0.54847205
H       15.73247792      14.27978045      23.00231365       0.03744856      -0.09900323      -0.02646901      -1.66254187      -1.58077514       0.89477032
H       16.48701088      16.14916452       0.84496854       0.48665273      -0.21380043       0.23825885       0.31490430      -0.40725130      -0.36446947
H       17.98676054      15.31444178       1.53390332       0.02257598      -0.23586828      -0.03836683       0.42211807       0.13001937      -0.19603269
H       17.08114962      16.72077458       2.38346115      -0.07781837       0.27202803       0.05371714       0.74376696      -1.04054379      -0.80777144
C       10.49046218       7.00556323      12.56155123      -0.55728857       0.14469233      -0.11895134      -0.24218640       0.16518039       0.40588129
C        9.96155405       6.43557630      11.25410157      -0.07109053      -0.12253296       0.91828622       1.19713724      -0.80176228      -0.62866861
O        8.88941698       6.74295274      10.75840309      -0.08255165       0.32883454       1.04601063      -0.88909507       0.67080462      -0.28728843
O       10.73591159       5.51006625      10.60539802      -0.83057648       0.05429434      -0.44380057      -1.13614488       1.01846910       0.58509064
H       11.64457280       5.30857314      11.14578063      -0.05820424      -0.01837783      -0.10710768       0.40365434       0.01230830      -0.10171351
H        9.79175610       6.90090298      13.42638966      -0.13424190      -0.11780739       0.10502005      -0.01923758       0.36008760      -0.75002891
H       10.88594889       8.05318014      12.50647464      -0.20664671      -0.03830078       0.14633438      -0.56377167      -0.67962039      -0.27977747
H       11.31247913       6.38015945      12.81465303       0.01690681      -0.36040328      -0.35406120       1.11606193      -0.32367754       0.49196339
C       24.89283137      18.81601356       5.17894121       0.40876736      -0.90859323      -0.75132492       2.17466784       0.25683263       1.16424584
C       23.59112611      18.61987496       4.58762747      -0.64297063       0.11063526       0.27908309      -1.15296805      -2.17148352      -1.54574895
O       22.65403502      19.40011045       4.83056307      -0.14733906       0.49067647      -0.98885345      -1.29543006       1.31035590       0.45153105
O       23.39242429      17.55425157       3.82701997       0.50665457       0.30796302      -1.58737288       1.22644615       0.79630971       0.49533617
H       22.24404628      16.88728178       4.23878056      -0.01258207      -0.07678251       0.02553429       0.36880612       0.37668976      -0.42201415
H       24.96839055      18.13805047      24.77959845       0.01854049      -0.18433852      -0.11372887       0.23462547       0.39394829      -0.84189463
H       25.05657484      19.85552023       5.55001309      -0.06963813       0.17785414       0.11229694      -0.30304599      -0.54927015      -0.21139812
H       25.67224070      18.58189641       4.42424488       0.16878034      -0.20101150       0.39244460      -0.12871540      -0.12815309       0.55978209
C       -2.69070123       6.67560039      18.16681954       1.33935464      -0.02501984       0.13506055      -0.23356709       0.17255858       0.39961213
C       -1.85313031       5.53903623      -0.97109879       0.28807081       0.62426585       0.05637843       1.73009229      -0.37807786       0.28838831
O       -1.71853781       4.59886987      -0.10688894       0.34595593      -0.03963032       0.46134174      -0.17236327      -0.46721745      -0.74244106
O       -1.16567875       5.63859202      -2.08162733       1.32432062       0.91306108       0.08588754      -0.99503529      -0.15780395       1.11124277
H       -0.38559527       4.09023600       0.63323411      -0.06654332       0.06691469      -0.05458892      -0.32368255       0.52337003       0.14032266
H       -2.09972387       7.23838331      18.90006246       0.50640982       0.13046340       0.10160859       0.01258212       0.31853411      -0.00639144
H       -3.55410112       6.31534478      18.72812778       0.11294939       0.04210400       0.19362073      -0.15545177      -0.05028842      -0.03730503
H       -2.97336177       7.29064434      17.33863922      -0.05667916      -0.09631937      -0.08523132      -0.29400894       0.71277153      -0.53109550
C       15.80915306      13.98637938      17.30386939       0.09507026      -0.01776950      -0.31207908       0.39193642      -0.03602886      -1.80117071
C       14.93770513      14.86756237      16.38176766       0.15772921      -0.45556239       1.03811383      -1.05055702       0.06300128       1.29640913
O       15.10608034      16.13381229      16.33988509      -0.14611166       1.26858302       0.32960969       0.69580108       0.01305962      -0.09717222
O       13.94557164      14.26158421      15.84362746      -0.23858230      -0.84699518       0.16295818       0.20431256       0.04321063      -0.35126436
H       12.81238517      13.81421455      16.96837734       0.30069883       0.01173204       0.18070382       0.04475605      -0.00986278      -0.15949827
H       15.99888362      13.06180376      16.70505615       0.05597960       0.02155973       0.44386816      -0.00119512       0.31633800       0.67558062
H       15.34880442      13.77763405      18.25926434       0.04206258       0.08087898       0.06615255      -0.38366467      -0.06981343       0.25583842
H       16.74142256      14.50459788      17.48574569      -0.00438055      -0.17513491       0.01546414       0.56981003      -0.00782126       0.17625621
C        9.53962897       3.00210001       0.89150954      -0.38510370      -0.01049756       0.08467580       0.08716525       3.05068827       1.14359272
C        8.77958757       1.78544691       1.11603236       0.10837165      -0.26696322       0.57067723       0.33275664      -1.43787432      -0.30488926
O        7.80345614       1.64992486       1.85999200      -0.94911363      -0.03480460       0.07434427      -0.44968355       0.11215720      -0.08118176
O        9.30724523       0.75515624       0.42155965       0.73154197       1.41864097       0.05277252      -0.14446640       0.13679901      -0.09448838
H        2.98384837       0.49641404       3.68291816       0.12108005       0.07438099       0.15892435       0.79111701      -0.07899611      -0.43849897
H        8.90625202       3.91694957       0.66175731       0.03510619      -0.05574403       0.19465659       0.27455592      -0.89351642       0.60551500
H       10.22513763       2.97796605       0.07998831       0.05068026      -0.11487860       0.25697187       0.75816071      -0.53607690      -0.99205822
H       10.16596552       3.24296899       1.79949876      -0.00179176       0.06669642       0.07186824      -0.48909253      -0.00867864      -0.57458973
C       16.19395468       2.55933451       6.44001219       0.89678066       1.20760772       0.01481348      -0.82878792       2.05126405      -0.28963977
C       16.95939368       2.05991742       5.24813409       0.22057235      -0.29739645       0.59898723      -1.51968575      -0.36818501      -0.86307693
O       18.12578103       1.66970108       5.30440186      -1.22522088       0.45883556      -0.08602337       0.60914373       0.14506418       0.45018893
O       16.31749046      20.64275603       4.06927988      -0.66958303      -0.04777530       0.73634303       1.67160344      -0.44368744       0.08106673
H       13.46159117      16.52460621       6.97404184      -0.01209229       0.07095022       0.02307400      -0.37161249      -0.04621929      -0.02976441
H       15.49348543       1.82815562       6.85506043       0.05747869       0.24236794       0.01363798       0.40274283      -0.57860577       0.13447259
H       15.44630917       3.40335199       6.14935259      -0.06914457      -0.18767072       0.13929792       1.52392292      -0.97359359       0.28061482
H       16.94788617       2.92284101       7.16836364       0.00608493      -0.25799293      -0.17505920      -0.87518525      -0.22447646      -0.08143163
C       14.36675633       6.76374388       3.98517927       1.01088008       0.43520953      -0.10531806       1.43642008      -0.00639629       0.40388456
C       15.79512368       7.44417624       4.09818154      -0.60364974       0.14179245      -1.03291512      -3.19230843      -0.75197184      -1.72718751
O       16.28091524       7.24685600       5.28944084      -0.10945158      -0.08013915       0.05253979       1.76076841       0.31732404       0.61619043
O       16.27672515       8.07382760       3.14737064      -1.17815873      -0.65742016       0.28937911       0.59208190      -0.01045668       0.47121859
H       17.26354220       7.58680179       5.27877197       0.06206564       0.10632988       0.08499886       0.01412416      -0.17256966       0.62119889
H       14.44576562       5.68627691       4.25204719       0.00251901       0.31739502      -0.21256315      -0.01917325       0.47697848       0.41948584
H       14.11432468       6.69320802       2.92906416      -0.32974047      -0.00491468      -0.28294243      -0.48736700       0.50513721      -0.19515151
H       13.63814282       7.29248036       4.64306349       0.22205322      -0.08882986      -0.16626264       0.29125416      -0.50633162      -0.69755697
C        0.61849600      -2.27866595      10.35892331       0.43320991       1.10342353       0.68200531      -0.11213565      -1.04551494      -1.75726914
C        1.88090858      -2.31366817       9.55305238       0.28962916      -0.08719894       0.08197769      -0.73394561      -0.50593674       1.11105573
O        2.75752992      -1.48332417      10.02050249      -1.05489911      -0.12682210       0.49017476       2.61988068       0.30255210      -1.66551220
O        2.03803505      -3.08240888       8.58978839       0.18454437       1.07588006      -0.67535330      -0.04033229      -0.33040690      -0.50130987
H        2.77789232       3.58301835      11.10209074       0.23118885       0.27549490      -0.20382308      -0.07442588       0.40297914      -1.43625832
H        0.68321897      -1.62986010      11.19483710       0.11262306      -0.28733653       0.06805359      -0.15641883       1.03394890       0.54156590
H        0.44008354      -3.28219584      10.72668869      -0.35579676      -0.41141332       0.20910138      -0.25657648      -0.53903091       0.02279633
H       -0.11009677      -2.02000246       9.56469237      -0.14639618       0.20702666       0.34427759      -0.43762141       0.05389001       1.02888536
C       10.16065474       8.30265624       2.53106562      -0.58136291      -0.38463611       0.07367528       0.51169038       0.24216220       1.27470160
C       11.10848515       8.76682419       3.66380552      -0.04772159       1.23651503      -1.46178710       0.05112135       0.55076313      -0.84930801
O       11.21862613       7.96601776       4.71691566      -0.72672806       0.27753195       1.06379482       0.20778894      -0.14292866       0.21399641
O       11.76623896       9.81493118       3.60848655       0.11829585      -0.86737208       0.18045718      -0.52375674      -0.51194358      -0.10914406
H       10.57307887       7.14408894       4.65855727      -0.09937988      -0.22560217       0.16877119      -0.33231068       0.31592357       0.36167309
H       10.73900640       7.70071991      20.55123461      -0.20645374       0.13904473       0.11149071       0.49130398      -0.07774907      -0.82732922
H        9.69881140       9.16943619      20.76396587       0.07341405      -0.02888178       0.10345814      -0.01056233      -0.04178232      -0.27749348
H        9.44985627       7.60570551       2.95197549      -0.19837552       0.04094045       0.19969837      -0.66435444      -0.02326480       0.04275662
C        2.03258796       6.53192648       9.66827761      -1.28512103       0.54351697      -0.72550587       0.53111994      -0.35461164       0.49855489
C        2.78174990       5.47321316      10.53212923       0.77529628       0.04475219      -0.34176370      -0.87488014       1.34994340       0.34757113
O        3.69582600       5.73895865      11.34633662      -0.12294831      -0.39772832       0.75455130      -0.52912319      -0.16683406      -0.80586636
O        2.22791727       4.28693138      10.38967904      -0.78422957      -0.73307476      -0.27613887       0.82707572      -1.86300552       1.46010292
H       -0.68304022       5.09674110       7.45597088       0.15029411      -0.03332908       0.23990903       0.22699034      -0.44132924       0.72796273
H        1.77023000       7.43916924      10.28801073       0.13933733       0.24065629       0.12682671       0.46632007      -0.75091982      -0.91474223
H        1.16149969       6.07009099       9.19236273       0.15073456      -0.05357901      -0.05477470      -0.11234826       0.10439470       0.66092342
H        2.65732375       6.69456978       8.77795616       0.01942652       0.19951635      -0.02967390       0.28418303       0.75684124       0.14386392
C       14.41797745      21.77693730       1.57390158      -0.90556924      -0.02019377       0.46858009      -1.67215002      -0.32662442      -2.02710962
C       13.60979115      22.21227017       2.78258352      -0.03403953       0.52907272       1.05471951      -0.28390086      -0.64531028       1.07468772
O       12.51610223      22.84724910       2.69399635      -1.25211671       0.39174561       0.54366064       0.57153225      -0.20754838      -0.29579833
O       14.10357521      21.77856671       3.90536922       0.76302835      -0.97894457       0.84410409      -0.08443403       0.52728391      -0.06014943
H       15.49039599      21.19674238       3.86028814      -0.28292583       0.23731619      -0.11477092      -1.55461812       0.44048035       0.70260304
H       14.69663104      20.71458152       1.59480789       0.01750378       0.20914118      -0.13348182      -0.20756690      -0.15517363       0.39268965
H       15.37393356      22.28039988       1.46465984      -0.05929325       0.41025778       0.12495743       0.04004753       0.63258183      -0.26047635
H       13.71700341      21.86750665       0.65735412      -0.03784109      -0.09285507      -0.18479210       1.36908233       0.15549260       1.07790828
C        7.35022118      13.47969280       9.94371622       0.55586886      -0.34875026      -0.49450176      -1.75256062      -0.94974339      -1.37167192
C        6.20274716      13.68633867      10.90344018       0.29640035       0.38302820       0.29815658       1.77645302       0.35981619       0.93143690
O        5.61745986      14.86744104      10.77918936       0.28344561      -0.66813593       0.38026520      -1.11737132       0.18973386       0.58872664
O        6.00546134      12.91289241      11.85898266      -0.04989150       0.32187477       0.47271469      -0.45833048       0.20686841      -0.90628338
H        5.91543239      15.43683801       9.94469179       0.06476524      -0.02078381       0.06557697       0.46090451      -0.52749628      -0.14017391
H        6.97600077      13.84710526       8.96823887       0.41415464       0.32028288      -0.13831918       0.76111770       0.02029530       0.32381368
H        7.52403869      12.42349738       9.83972213       0.13905941      -0.30742642      -0.27370754       0.13633548      -0.82476211      -0.01038183
H        8.28817318      13.90594389      10.21169584      -0.00771384       0.12357009       0.28223339       0.66559613       0.85380596       0.43082547
C        1.63858612       9.67016652       6.28573077      -0.70105313      -0.09588878      -0.07135419      -1.31519198       0.99085510      -0.50579423
C        0.29410347       8.91543785       6.20741511      -0.00340149      -0.13186196      -0.92890445       1.75609219      -0.74970502      -1.03638363
O        0.17398049       7.84053578       5.49622431       1.13281262       1.70003545       1.76985668       0.00431278       0.94086981       0.51127791
O       -0.62423707       9.47820590       6.83045405      -0.19017605      -0.51179144       1.48147493      -2.04903221       0.67849988       0.89993203
H       -0.61819732      10.99653835       7.05431892       0.02654909       0.04784528       0.06421937      -0.92762905      -0.30307209       0.38122153