640
Lattice="19.152215 0.0 0.0 0.0 19.152215 0.0 0.0 0.0 19.152215" Properties=species:S:1:pos:R:3:momenta:R:3:forces:R:3 energy=-80135.2109375 stress="-0.02029811590909958 0.0019255768274888396 -0.0010951969306915998 0.0019255768274888396 -0.016890689730644226 0.001318792114034295 -0.0010951969306915998 0.001318792114034295 -0.015991227701306343" pbc="T T T"
C       23.61411639      11.05898011       5.89356757       0.29742795       0.51295308       0.51011800       1.10131323       1.74356627      -1.57181513
C       22.23975145      10.67050331       6.10226437       0.07184394       0.01693009       0.56255905      -1.40292239      -0.91077566       0.92053759
O       21.27988973      11.40729669       5.91169378       0.48826521       0.68129380       0.37245406      -0.58729327       0.51470268      -0.12382647
O       22.08041097       9.40037572       6.55566747      -0.22931691       0.22492450       0.09205763       1.01840591       0.30117154      -0.49877244
H       21.11236387       9.28036800       6.81660302       0.06238666      -0.01706434      -0.07193520      -0.53905237      -0.05608720       0.65573126
H       23.62974886      11.75866028       5.00812224       0.06444016      -0.02682545      -0.13352893       0.17139196      -0.25092757       0.91397667
H       24.19113655      10.22464536       5.59043572       0.00772367       0.22007284       0.17849211       0.78036332      -1.18840384      -0.22041762
H       24.16297022      11.49186894       6.74103052       0.00480208       0.03188129       0.21284951      -0.46791834       0.04350421       0.01831961
C       12.31654026      23.09171638      11.26181128       0.43510569      -0.55636040      -0.05668448      -0.06987892      -0.17682694       1.44283009
C       12.08064808      23.86052502      12.58509389       0.42527565       0.38551618       0.15679036      -0.73464513      -0.17847741       0.44614398
O       10.90787631      23.71138047      13.19069062       0.56545663       0.39492557       0.66187636       1.03946698       0.36767185      -0.67900229
O       12.92498391      24.58899361      13.11919260       0.42956210       0.79257781      -0.47122108       0.75584757      -0.01168168      -0.21292472
H       10.16833532      23.22471331      12.52337700      -0.16132484       0.09680898       0.08234635      -0.50231051      -0.49527854       0.81181985
H       11.37801437      22.79391471      10.84882699      -0.20553846       0.07015145      -0.02058579      -0.98937392      -0.00125770      -0.61439490
H       12.77353461      22.11140363      11.49354909      -0.06178612       0.12446594       0.10785873       0.49323666       0.37133422      -0.05609915
H       12.88325254      23.68052909      10.55781896       0.06446514      -0.03766262      -0.11276342       0.42058304       0.10228053      -0.12145635
C        1.40420741       4.98711688      17.26421399       0.54496753       0.07509541       0.75387329       0.89848459      -1.11516154      -0.50199223
C        1.03063326       6.28800618      17.88218565       0.18244058       0.47764241       0.41814123      -0.99696803       0.04761648       1.68460202
O        1.79479306       7.42228172      17.79740211      -0.53138335      -0.79617095      -1.05680677      -2.08354068      -0.81958199       0.44371110
O        0.03262652       6.26185567      18.62491011      -0.43966724       0.96860479       0.46350001       0.35638809       0.83945274      -0.45107269
H        2.54509668       7.34432418      17.17200014      -0.05265914      -0.25346312       0.04849281       1.49225867      -0.24730313      -0.54329622
H        0.85785713       4.78559782      16.32462031       0.06709248      -0.00658922      -0.19611568      -0.29454833       0.22763903       0.23485160
H        1.17686373       4.11081984      17.98302537      -0.13057199      -0.07977445       0.03103360       0.52364147       1.36583424      -1.11421156
H        2.45500573       5.01335233      16.92338984      -0.01301572       0.06184688      -0.14429984      -0.03380954      -0.27423590       0.35382807
C       12.79071870      18.88385185       5.95617102       1.60540007      -0.16958850       0.28444091       1.16671419      -1.74099898      -0.17299826
C       12.13549461      17.71273404       6.60122205       0.21713313       0.29852726      -0.24745365       0.47889113      -1.20576239       2.62400770
O       12.78610374      17.21598373       7.78217297       1.06309085       0.57398855      -0.16103748      -1.69511235       0.56184554      -1.62129021
O       11.14277861      17.11672718       6.24531358       0.58863659      -1.25091446       0.85320763      -0.48209596       0.30735195      -0.69631106
H       10.10140024       9.30453380      -3.38143478      -0.27168998       0.06187991      -0.28435428      -0.06058586      -0.03612657      -0.26080114
H       12.08612577      19.47559023       5.43189739      -0.19358392      -0.11759116       0.13444292      -0.70522475       0.46361917      -0.85015476
H       13.52701288      18.33262843       5.30793965       0.20415628       0.04121244      -0.06363385      -0.35914949       0.95082271      -0.15655380
H       13.37630144      19.47730397       6.63520176       0.48714618       0.06619505       0.02771511       0.22103602       0.32294175       0.50609124
C       13.99167966      13.31304399      19.60640525       1.07091248      -0.12318057       0.05001072       0.71591324      -1.89327347       0.03691193
C       13.69477937      11.74290003      19.52302469      -0.46805515      -0.17553423       0.39422704       0.59904140       1.40042496       1.05683851
O       13.12290480      11.16016432       1.29840052       0.40432605       0.09134179       0.94680476       0.14698809       0.14091575      -0.42472255
O       14.21565274      11.09720108      18.46323844      -0.25374897      -0.44312135       0.03771543      -0.27510417       0.26527992      -0.11665797
H       13.23512306      13.51594512      11.38636168      -0.17887781      -0.23394493      -0.09968000      -0.45812979      -0.86742187       0.39848235
H       14.87803953      13.42409485      20.32081624       0.25680529       0.05827018       0.08098310      -1.15692627       0.03964275      -0.67130738
H       13.08221644      13.83060148      19.94195637      -0.07815960      -0.05456944      -0.05290037       0.31076384      -0.03781903       0.16402438
H       14.33658962      13.70069365      18.63820537      -0.06611716      -0.33399867       0.11442756      -0.14047813      -0.12153149       0.07114393
C        1.07547000      -0.42946022       0.06942257       0.26765675      -0.34882454       0.63158641      -0.24714977      -2.37254333      -1.51188898
C        1.57313180       0.62361016      18.30684229       0.34932664       0.09207250       0.54805695      -0.96733701       1.77911901      -0.42345795
O        1.23041913       1.83245977      18.40704923       0.35751237      -0.44572213      -0.35868790       0.96965873      -1.19367313      -0.18372099
O        2.29250077       0.09687545      17.31306770       0.35581807       0.10545389       1.34576057       0.79886091       0.53628337      -0.74348652
H       15.74772459       4.85621325      20.41553945       0.36581338      -0.01343838       0.12753021      -0.80404633       0.45696014       0.64121503
H        0.37374653      -1.12910843      -0.60066666      -0.13462674       0.11836235       0.01706483       1.20376050       1.42077506       1.64288533
H        0.61111918      -0.03716926       0.95185435       0.21516135       0.12694189      -0.07007697      -0.65026319       0.26917219       0.37562871
H        1.93286335      -1.06606869       0.37106782      -0.26333199      -0.03166722       0.37230692      -0.31293935       0.04690570      -0.09009457
C       14.39817792      23.09138004       8.33918348      -0.14696103      -1.01441341       0.27982738      -2.04755068       0.81104547      -0.48263234
C       15.15814730       4.46076323       7.12433463       0.52688023      -0.03564750       0.09858715      -0.08183324      -0.55854356      -0.69159150
O       16.23883000       3.75337332       6.81544862       0.89288597      -2.18513908       2.02712295      -0.07067704       0.09406185       0.15329099
O       14.74828822       5.42435783       6.45074331       1.33859749      -0.06688378       0.14440462       0.05366546       0.00873518       0.57694292
H       23.39528027      -6.53280588       2.49575564       0.14744587       0.26038531       0.04858392      -0.07823586      -0.55104953      -0.30977044
H       13.42241397      22.50865848       8.11198293       0.06621844       0.17781843       0.14882062       1.54777312       0.82521576      -0.08898607
H       14.05230565      23.98769382       8.90721074      -0.03021503      -0.05178192      -0.12066350       0.19445735      -0.45338470      -0.28419346
H       15.01416374       3.35852044       8.97635859       0.03391927       0.20544183      -0.28024660       0.71616316      -0.77831340       0.75002742
C        8.16236178       5.29166788      11.56312285      -0.24744612       0.25359851       0.73040214       1.09725606       0.30082953      -3.12918305
C        8.09450547       3.80716549      11.75060218       0.10892886       0.19592436       0.05080222       0.74217504      -0.71672595       0.12412892
O        7.07880465       3.12309216      11.45694660       1.08569676       0.46228095       0.80436277       0.54532290       0.54212546       0.49994659
O        9.21404523       3.28238271      12.21113985      -0.14320620       0.31238722       0.53004135      -1.50579894      -0.26857424      -0.84004712
H       10.67516191       2.21640577       7.84056246      -0.09031064       0.10469965       0.05958649       0.02491504      -0.15308058       0.43540812
H        9.04428158       5.53190123      10.86498875       0.10541095      -0.24040935      -0.05371671      -0.86463767      -0.52860761       0.63976175
H        8.38330092       5.90475812      12.37013158      -0.01598553      -0.06232766      -0.06761486       0.45426580       0.68197697       2.46515322
H        7.34975840       5.78688485      11.05913202      -0.22880951      -0.13062246       0.10658484      -0.92186552      -0.25223643      -0.32612884
C       10.66881676       5.32090877       6.88783707      -0.71145987       0.13978454      -0.39996874       0.06614730       0.13552842       1.46667182
C       10.17774015       4.06139271       7.60997338      -1.23947099      -0.09997698      -0.32587427       1.68998611       0.20504671      -0.92731094
O       11.10695632       3.07255050       7.40402705       0.25117133      -0.80472930       0.28696139      -0.77149427       0.00809451       0.14249271
O        9.16367243       3.93011864       8.27057153      -1.85076588       0.86204089      -0.16848675      -0.48327172       0.24765235       0.11583340
H        7.06589954       9.84759547       7.47679924      -0.06964782       0.33933584       0.28900158      -1.01064312       0.72519457       0.92876655
H        9.85530544       6.08545392       6.99348854       0.06796953      -0.14707758      -0.23501581       0.75246632      -0.52352577      -0.72441030
H       -8.11806200       4.99601495       5.88827556      -0.04212421       0.22755684       0.15541905      -0.43158126       0.69627881       0.33178484
H       -7.58299087       5.67652841       7.49052371       0.13844623       0.27993869      -0.09273503      -0.80807334      -0.26506674      -0.73162329
C       13.74112475       7.94520406      15.83245886      -0.13307834       0.48462457       0.04492804      -0.07860833       0.63745642      -0.34504759
C       13.71490080       7.76770382      17.32314655       0.93186483       0.28929030       0.45037210       0.38407642      -0.45788401      -0.56566262
O       14.20521014       6.68332234      17.80177708      -1.10990683       0.31817849       1.06193304       1.20094740      -1.96394765      -0.51715136
O       13.25631403       8.58058688      18.13132573       0.04580864       0.04821352      -0.54342219      -0.78038996       2.06330228       0.23785543
H       17.71190512      18.74887767       9.39548264      -0.05501446       0.00950493      -0.06002687      -0.03508107       0.06328806      -0.13560653
H       13.47478409       8.94510754      15.57883200      -0.14642119      -0.18505620       0.03308672      -0.30654830       1.21812272      -0.00023067
H       13.02200919       7.36030231      15.28427748      -0.03561299      -0.05690306       0.05746782      -0.68398166      -0.82043123       0.01231104
H       14.67064242       7.75825806      15.31012246       0.11266106      -0.02341129      -0.07300398       0.75728834      -0.33677271       0.33388445
C       16.66619970      12.73520957      32.02794200      -0.72357265       0.38990077      -0.00933880       0.30207202      -3.90952945      -2.54413414
C       16.56073001      11.26251107      32.59651174       0.39017775       0.40687429       0.12212291       0.05388644       1.12276447      -1.37980437
O       -3.38895503      11.08829701      33.62404516       0.38177386      -0.29252076      -0.10380393      -0.37243974      -0.36175013       0.87435395
O       17.15263932      10.32376071      32.08268179      -0.59878273       0.59981967       0.19178140       0.43371689      -0.57762742      -0.44137752
H       15.49766736      12.01254801      34.05726487      -0.00190959       0.06039175      -0.13101635      -0.14776064       0.17666525       0.00032169
H       17.17238532      12.64243905      30.99106144       0.23682394      -0.24031942       0.28324584      -0.72590369       0.38838202       1.74145222
H       17.24451188      13.15705585      32.76921260      -0.11628703       0.16993479       0.15009927       1.32824755       1.90329647       1.34307170
H       -3.49067129      13.06236214      31.94564293      -0.13372955       0.40520938      -0.17305437      -0.95872605       0.94777107      -0.08665682
C        8.59649659       9.19339896       9.37014643      -0.39349264      -0.58936904       0.33658606      -0.86185217       0.40383786       0.38997400
C        7.27795389       9.97032475       9.45307290      -0.45442125      -0.40583961      -0.39377424      -0.30884171       0.86045629      -0.49981678
O        6.81662769      10.35970518      10.51729368       1.25761323      -0.81036100       0.50775014      -0.13021791      -0.02973604       0.66034007
O        6.60273556      10.31611419       8.31534200       0.06515764      -0.90821924      -0.32134222       1.57650793      -1.27583814      -0.70769703
H        7.06301080       6.90968860       7.29147143       0.11065775      -0.04340022      -0.15383523      -0.25959271      -0.46313685      -0.02285159
H        8.65656494       8.68430705      10.33628966      -0.21317129      -0.07346480      -0.23007165       0.58498818       0.23940843       0.18707126
H        9.44349671       9.85295880       9.11136860      -0.09609595       0.05371301      -0.04643077      -0.28401470      -0.29939261       0.33755800
H        8.51295415       8.42872001       8.63094308      -0.12142768       0.17773521      -0.12301662       0.05484195      -0.68796349      -0.89816427
C       -1.63527314      -3.09132770       0.11529836       0.49242850      -0.06531395      -0.31714314      -1.03655744      -1.27057219       0.75808024
C       -1.45302643      -4.66270191      -0.04365130       0.46882311       0.43871506       0.24535473       0.22766927       2.30367160       0.22680096
O       -2.00504991      -5.40611756       0.75706081      -0.61429266      -0.04889979       0.16755784      -0.64813399      -1.16853249       1.13428485
O       -0.69607086      -5.00986325      -1.01728237      -0.54178606      -0.17359472       0.14041581       0.92444897      -0.03649318      -0.95335126
H        2.68201756       0.78633087      -2.55380972       0.17764923       0.03735856       0.05312321      -0.48300040      -0.03829539       0.88775790
H       -0.71265315      -2.57536870      19.58984807       0.08458575      -0.17480578      -0.11093816      -0.25421184      -0.20125318      -0.45862871
H       -2.42555515      -2.94982073       0.90529152      -0.03375412      -0.25829478      -0.05148259       0.65951753      -0.01911020      -0.56411743
H       -2.06244001      -2.74427106      -0.83318610      -0.06990409      -0.06874172      -0.04460034       0.37071630       0.46309400      -0.04113352
C       12.17971076      11.69865890      13.00638065       0.21468999       0.76136169      -0.13277328      -0.89824289      -0.00697215       1.20259535
C       12.93186955      11.48520291      11.76079235      -0.31218315       0.47949928      -0.23441342       0.59022534       0.54495525      -0.28580487
O       13.44747427      12.54297543      11.08684661      -0.15743261       0.50346527      -0.03566226       0.19047260       0.51223940      -0.28467095
O       13.11443505      10.35484243      11.32942636      -0.70882103       1.13450493      -0.11308485       0.29224598      -0.33898211      -0.53970778
H       13.90533809      10.13590937      18.47749570      -0.03909271       0.07538716       0.08175368      -0.02952600      -0.10363269      -0.14167532
H       12.74707942      11.31312449      13.90251803       0.25654027      -0.25630471       0.10802876       0.04469627       0.84970653      -0.66973943
H       11.37637270      10.92505624      13.00674930      -0.04386334       0.11044542      -0.02510727      -0.13232648       0.89953738      -0.10909645
H       11.80333715      12.76034586      13.09664748       0.07254828       0.01492432       0.07582022       0.24587509      -1.19783759       0.31704310
C        3.61261352       5.18689024      13.06194850      -0.35852449      -0.03424641      -0.58627353       0.61818707       1.71702778      -0.93507755
C        2.30162752       5.59901623      12.35412771      -0.49128214      -0.25620263       0.37766143      -1.36647773      -0.37967849       1.43180954
O        1.67135801       6.57902677      13.10647297       0.00017127       0.05538734      -0.69137038       0.00571239      -0.40773106      -1.23408365
O        1.72801416       5.02307283      11.40793081      -0.37519872       0.73171125      -0.45200381       1.48439682       0.73221481       0.79609942
H        0.74657415       6.74422515      12.68557103      -0.05600117       0.03272927       0.32708782       0.14141428      -0.25128812       0.01448512
H        3.83397598       5.68759928      14.02862728       0.37861647       0.25623852       0.19973431      -0.67518640       0.06560495      -0.48807484
H        4.48177213       5.45393792      12.40446077      -0.04539745      -0.09009262      -0.15684421      -0.51194239      -0.26209080       0.17866018
H        3.65321309       4.13955631      13.23302341       0.02284261      -0.04577259      -0.02986636      -0.27031144      -1.10035837      -0.25021249
C       17.22176845       2.25919064      -0.08727503      -0.09473099       0.32576153      -0.25728269       0.50281739      -0.82541144      -0.70055860
C       16.19067595       3.20163899      19.62433683      -0.27241375      -0.38464485      -0.64704664      -0.19965255      -1.20624089      -0.44389886
O       16.55998591       4.39719612       0.95081056      -0.28249959      -0.08951055      -0.64031230       0.73457515      -0.54514396      -0.69255763
O       15.03412731       2.77772601      19.58405121       0.37098402       0.53533548      -0.96696174      -0.65957189       0.60673356       0.47939578
H       14.87672965       5.99539254      17.03441210       0.07297293      -0.21045858      -0.01640921       0.02057070      -0.13611951       0.11907248
H       17.03257499       1.20710711       0.32871807      -0.07828699       0.01504125       0.08944969       0.73069125       1.53023207      -0.08543819
H       18.27991533       2.59017405      -0.18406975       0.10270938      -0.46312892      -0.25154854      -0.46781778      -0.23489317       0.81385875
H       16.95348326       2.09136827      -1.15077171       0.34303404       0.06020264      -0.02580694      -0.14729907       0.28429836       0.22048265
C        7.71580135      14.23753517      -1.03566036       0.35733638      -0.35787765      -0.22372252       2.37915325      -0.78430998       1.14936829
C        8.23189789      15.59002204      -1.47696103       0.40690226      -0.27107179      -0.24568792       2.38460016      -0.08250028       0.54192436
O        7.39163191      16.25824817      -2.22389933      -0.04473749      -0.62350330      -0.42103692      -0.45273495       0.43005937      -0.61192185
O        9.40045754      16.00894808      17.95737368       0.06090361      -1.17371104      -2.33683843      -1.75668502      -0.67943132      -0.31788501
H        7.86683979      17.08381378      16.36317347      -0.14786973      -0.02998305       0.15250091       0.17367107      -0.36644679      -0.19632262
H        7.87337997      14.08528925       0.04728828       0.22011883       0.13585328       0.17029889       0.23119617       0.38403186      -0.07304156
H        8.26289005      13.34582813      -1.46063435      -0.27479099      -0.07324184       0.04047614      -0.33805886       0.99817210      -0.11978894
H        6.69443942      14.10806526      -1.15089662      -0.06896516      -0.16603291      -0.00542125      -2.27309680      -0.13870573      -0.74647558
C        7.28963902      18.89909276      -0.08244577      -0.51586996       0.94368367       0.55947609      -1.38036072       1.95160794       1.32164001
C        8.36284483      19.40340185       0.89210671      -0.78534066       0.52512438      -1.07694257      -1.85570979      -1.32186317      -0.90938121
O        8.13215971      19.20435243       2.07737304      -0.46684157       0.52247057      -0.51504520       1.02668071       0.42354876       1.36338031
O        9.41918252      19.96815923       0.35319663       0.63122145      -1.17995562       0.72818813       0.50660121       0.74151254       0.15685892
H       10.01833466      20.43840072       1.12763288       0.14128821       0.24058515       0.06378046       0.05131269      -0.35129446      -0.03866506
H        6.82638460       0.67662174      -0.53723515       0.05903586       0.06535470      -0.22508437       0.38942927      -0.95009232      -0.02629526
H        6.44458657      18.36526188       0.45723240      -0.19371351      -0.22346743       0.11817627       1.09057570       0.57887268      -0.41533720
H        7.69844289      -0.88598254      -0.81803510       0.07569812       0.00211423      -0.26559252       0.50821042      -0.64562738      -1.19290590
C       19.98233511       4.47185110      26.85068931       0.15939915      -1.46169737      -0.44054347      -1.09946716       0.23510440       4.03996754
C       21.08476103       4.66586152       6.79086446      -0.30788617       0.24583517       0.04512759       2.31048179       1.42867696      -1.62050855
O       21.79050211       3.60408134       6.54732553      -0.40363465       0.33494942      -0.84036975       0.42105412      -0.35376883      -0.30011159
O       21.38365272       5.81684527       6.31498116      -0.15415832       0.76595669      -0.34144939      -0.72196430      -1.04656529       0.43645096
H       21.90112333       2.00184902       6.72751213      -0.00100768       0.07901076      -0.19095566       0.37378764       0.81066585       0.35253662
H       20.26489328       3.80139770      27.73231437       0.35851439      -0.01905437       0.24854142      -0.11114125       0.42355877      -1.21406817
H       19.11264509       4.03640940      26.41544230      -0.00989192      -0.09996633       0.03860272      -0.88850832      -0.52471817      -0.67457312
H       19.63898295       5.38640455      27.39800055      -0.11539106      -0.45080482      -0.18357003       0.32529882      -0.23204726      -0.81193280
C        0.37992777      -4.17080573      -7.24323422       0.07583493      -0.02693575       0.45572218      -1.98179960      -1.64482474       1.33350682
C        0.24629190      14.42204245      -5.80744926      -0.37663923       0.08527459      -0.24651594       0.34025916       0.33220059      -0.84691072
O        0.71973020      13.31496464      -5.50685766      -0.43579469       1.95061957       0.15602423       0.68633604      -1.32612967      -0.02691972
O       -0.33862596      -3.98751808      -4.94151745      -0.99317829       0.40681563       0.48412492      -0.28960532       0.24435849       0.33651352
H       -0.84120118      -2.88667586      -5.40348563      -0.13567524      -0.04080633      -0.13772131       0.17405772      -0.53799713       0.08523780
H        0.58935234      -4.92017321      -7.98430026       0.12516440      -0.21647591      -0.07028708       0.15328443      -0.65284359      -0.31595632
H        1.15068579      15.66021787      -7.18474147       0.18232549      -0.22543653      -0.00438393       1.82389557       2.02510166      -0.20959873
H       -0.57855846      15.44615165      -7.42030068      -0.03229676       0.18390496       0.14165188      -0.22039133       0.54232091      -0.63264143
C        8.19502270      25.83017706      22.02402836      -0.44587801       0.34626706      -0.70434176       2.30535889      -4.42373848       0.31675425
C        7.57140213       7.52219219      21.03910416       0.37888705       0.69686474      -0.66630091       0.68211514       1.12525904      -1.33853114
O        7.18200173       6.98841299      19.86183193       0.50849884      -0.66239913       0.09842580      -0.29710904      -1.08579755       0.60010111
O        7.59003096       8.73645263      21.23276558      -0.40148124       0.75348731       0.25076943      -0.77670044       0.43425131      -0.17704785
H        7.06657015       5.94058984      19.98245521       0.25196457       0.08137065       0.03075336      -0.27727112       1.00882423      -0.42579630
H        7.82725222      25.92998450      22.99322415      -0.22987886      -0.23363639      -0.09670565      -0.96192002       0.58665609       1.79726052
H        9.28338187      26.00718610      22.15505216       0.03353586       0.21031684      -0.12655938      -0.43790197       0.40725049      -0.31072819
H        8.21656113      24.67175127      21.89998770      -0.15590757      -0.05409482      -0.00278109      -0.48380846       1.82661951      -0.53815955
C       -0.44423372      -1.26599786      -3.56381420      -0.15394155       0.39636087      -0.25249075      -0.35762969       0.68900120      -1.18131709
C       -1.28323586      -1.03288756      -4.87829442      -0.95817713      -1.51265561       0.86684255      -0.20123971       0.37771827       2.44894576
O       -1.36033928      -1.98098283      -5.77792632       0.52054839      -0.86496075      -0.26665987      -0.13770008       0.62996083      -0.34769702
O       -1.94166280       0.02789965      -4.89567618       0.50786229       1.64608893       0.08784914       0.26244724      -0.56166124      -0.85752857
H       -0.70770321      -6.25541633      -1.23856785       0.10830537      -0.01074148      -0.13969711      -0.44880608       0.24771535       0.11344129
H        0.63738360      17.97162776      -3.81639398      -0.04662740       0.36404878      -0.05241213      -0.44392323      -0.08831348       0.38372967
H       -0.67473459      16.92185291      -3.11214741      -0.22027469       0.17816219      -0.12561262       0.16683385      -0.24217460      -0.09738931
H       -0.76515652      -0.44980367      16.25907335       0.24431784       0.06977858      -0.07505508       0.40680584      -0.29559654      -0.05903059
C        3.96053210      17.52041289      -8.48656596       0.27723228      -0.69253483      -0.04420755      -0.94919187       0.18148324      -0.02039576
C        4.16972842      17.25120213      -7.04312304       0.76481206      -0.13641012       0.32605827       2.27161598       0.97586060       0.86981136
O        5.28463537      17.50758701      -6.51806219      -0.53616724      -0.84803361       0.27158624      -1.08276200      -0.58023131       0.10502863
O        3.10307238      16.80629886      -6.39331153       1.20047679      -0.48654677       0.01077353       0.21919370      -0.16685352      -0.41119778
H        3.38251198      16.54392884      -5.39596928      -0.24132581      -0.05973802       0.15680148      -0.25282371      -0.03345895       0.54770982
H        2.99861818      -2.15143123      -8.64294975       0.35806491       0.07025314       0.05563463       0.29552883       0.43055564      -1.10573983
H        4.81181435      17.28177422      -9.12763478       0.10814588      -0.13229931      -0.26896552      -0.09669435      -0.63030714       0.02174592
H        3.89233491      18.61397625      -8.60579350       0.11619339       0.07486905       0.21111318      -0.57674700       0.01784945       0.01007705
C       22.17359350       9.95312787      10.90908363      -0.62679011       1.18324096      -0.22446444      -0.96219981      -1.59213269      -2.60401487
C        2.31466825      10.65355860      12.00661514       0.10981845       0.28995344      -0.28383292      -0.47643942      -0.59085989       1.12012815
O       21.05317797      11.86636906      11.65486042       0.80798930       0.40753291      -0.32571772      -0.01116155       1.06749439      -0.64359927
O        2.01856288      10.15994980      13.09726219       0.79025104       0.47760906      -0.34940252       0.51989698      -0.07963002       0.03872561
H        1.42507566      12.32429044      12.41504101       0.13760991      -0.04582729       0.14017978      -0.22439587       0.22141683       0.47199762