640
Lattice="19.152215 0.0 0.0 0.0 19.152215 0.0 0.0 0.0 19.152215" Properties=species:S:1:pos:R:3:forces:R:3 energy=-80140.73463924248 pbc="T T T"
C        0.99505979       5.53826695      18.69578520      -0.69181191       0.81109779      -0.46306649
C       -0.43726340       5.00898207      18.53711729       0.77921629      -0.69599117      -0.13537779
O       -0.76298379       4.15344677      19.34828218      -0.66465882      -0.21816642       0.29511722
O       -1.15596056       5.26962296      17.43206613       0.71750666       0.90117712      -0.02876490
H        0.97147577       6.61341692      18.43703162       0.24754660      -0.07567354       0.03765515
H        1.70099871       5.03413824      18.02997338       0.00466842      -0.07797441       0.03677589
H        1.21211768       5.41924003      19.74347158       0.26331818      -0.06468403       0.22783517
C        4.73849537      17.12653900       8.76956104       0.62349799      -0.15974406      -0.38894235
C        4.99873660      15.59493035       8.82078915      -0.83301999       0.29231853      -0.88130712
O        6.16868950      15.32521766       9.31111988       1.06138294      -0.43596156       0.44374460
O        4.20791399      14.73045893       8.40322481       0.12623617       0.34277342       0.16509646
H        5.02680872      17.50459949       9.74117079      -0.10512118       0.22398567       0.31363660
H        3.70328424      17.28807279       8.53655352      -0.32562991       0.12807117       0.03350694
H        5.37561458      17.73246299       8.02984891      -0.34416656      -0.65671065       0.37242117
C        5.95559056      22.39804790      11.79053120       1.36718026       0.44378632      -0.10684919
C        7.10332643      21.52154128      11.20000582      -0.04940844       1.22384952       0.72264188
O        8.31165637       2.78666477      11.28690325      -0.28138213      -0.28857342      -0.30373193
O        6.72709818      20.39186798      10.78612422      -0.11827672      -0.44188083      -0.32245891
H        5.12315264      22.30739388      11.19071940      -1.17847633      -0.22681319      -0.79664515
H        6.17195037      23.48583718      11.85561850       0.13014491      -0.31243249       0.06611520
H        5.74557911      21.99094101      12.75036912      -0.17960100      -0.15695438       0.63678759
C       11.08141827      21.54409339      21.92037905       0.36133840      -0.52317201       0.66473795
C       -6.59832752      21.15546605      22.02437344       0.07951922       0.87432862      -0.49246256
O       -5.73933952      21.74591530       2.16919323      -0.25835112      -0.22270546      -0.12728954
O       -6.27725692      20.35060117      22.99313712       0.00572200      -0.29002583      -0.12083827
H       10.78147470      21.76588013      20.91324268      -0.18736414      -0.06993256      -0.29787302
H       11.01015827      22.45499238       3.36066736      -0.18420763       0.05002989      -0.01144706
H       10.50483393      20.77665585      22.47214170      -0.08780561       0.18936683      -0.33601226
C        4.55195492       7.89644320      11.48367362       0.45620763       0.40189102      -0.63157026
C        4.93411152       7.07327785      10.23824973       0.00514136       0.34610836       0.22702884
O        6.11168165       6.95361253       9.87736574       0.01096087      -0.12809346       0.00830286
O        3.88249421       6.59846941       9.57136796      -0.09311216       0.02221221       0.51558509
H        3.66845970       7.52143786      11.93210525      -0.61433061      -0.24777101       0.27949475
H        4.34204346       8.94559393      11.14553976       0.05021846      -0.30656736       0.13076969
H        5.36092205       7.93514294      12.22126194       0.04394030      -0.01210328      -0.10149267
C       -1.00976368      17.33552931       3.14616584      -1.06642434      -1.06009154      -0.05088621
C       -1.20896575      16.13822446       2.11106495      -0.54901478      -0.34749583       1.01335635
O       -2.30655067      15.53220249       2.05342831       0.25579018       0.39080406      -0.17571707
O       -0.10866266      15.67168525       1.55490734       0.20821201       0.52891351      -0.07049007
H       -1.85078961      18.05562454       3.13084352       0.12465854      -0.23554981      -0.08675159
H       -0.12020267      17.80183624       2.90535592       1.13381083       0.68550412      -0.20872777
H       -0.93722258      16.91699078       4.18453728      -0.02623433       0.05818063      -0.39998900
C        7.87140749      19.37822419      21.51143645      -0.65535970      -0.76186251      -0.27546840
C        7.61343409      19.50536348      19.97906799       0.61127312       0.34456971       0.32203462
O        8.38747399      20.52825869      19.55473423       0.30256306       0.26264976      -0.35935369
O        6.98958605      18.79285763      19.20172330      -0.27792150      -0.20127584       0.37844478
H        6.98089863       0.29346474      22.16761755       0.05691874       0.04407223      -0.29161895
H        8.61950763      20.06748103      21.84600000       0.19239220       0.35730045       0.01664933
H        8.26425185      18.35445432      21.65079810      -0.06171367       0.04192908      -0.00064438
C        2.22931039       8.75243209       7.55985591      -0.81227425      -0.16995521      -0.62390367
C        1.59818189       9.77651064       8.47953180       0.23025420       0.87877321       0.05791425
O        1.83052902      11.05927035       7.96123915       0.07690005      -1.61131754      -0.44379713
O        1.02257140       9.63648423       9.56351363       0.18627736      -0.30023337      -0.43961631
H        2.43913305       7.76690889       7.98853638      -0.34282429       0.01079584       0.09438407
H        3.19522161       9.12185273       7.28655103       0.43345879       0.26569319      -0.26570142
H        1.59717369       8.69248962       6.57569262       0.58179829      -0.02269396       0.89978374
C       12.57167756      11.84007386      12.11379956       0.36797173       0.96130240       0.49428900
C       11.59318886      11.26302344      13.10278633       0.07052174      -0.00515216      -0.08467106
O       11.41322142      11.85845357      14.26784214       0.07965815       0.08294178      -0.04133024
O       11.05465230      10.19213961      12.79083487      -0.40619936      -0.48518779       0.09409348
H       13.56196137      11.40330692      12.37422438      -0.08027701       0.12662561      -0.12734203
H       12.63915281      12.98053433      12.20486742      -0.02627901      -0.74610820      -0.15714220
H       12.35132825      11.56650581      11.08530750      -0.12945117      -0.06325340      -0.02810844
C       -4.96510473      21.84726125       8.29748881      -0.69189534      -0.61879504       0.47483905
C       -3.66945134      22.46546887       8.63827729       0.70381583       0.31274988      -0.37599848
O       -3.17118193      23.51294526       8.19367424      -0.50266894       0.01527613      -0.05941452
O       -2.91857790       2.50156047       9.39434826      -0.05380174      -0.26805015       0.17837467
H       14.33262422       1.60488812       8.24959795       0.12043501       0.05510002      -0.28325651
H       -5.47039495      22.17883665       7.39707276       0.07613036       0.16149262      -0.10524265
H       -5.71120274       2.67921890       9.12748897       0.15758057       0.40449894      -0.03636806
C       15.48282955       6.58255267      12.20353202       0.53215490      -0.26414475      -0.59622577
C       16.01966553       5.47844391      13.09015547       1.11095746       0.39460724      -0.67807285
O       -1.79283441       5.19278039      12.87436196      -0.48253665      -0.29020941      -0.02169318
O       15.37128187       4.88762848      13.91738722      -0.62126903      -0.25632392       0.47697151
H       -3.05910174       6.89128421      11.32803723       0.13818080      -0.16728378       0.42909553
H       15.19185221       7.45290892      12.73622560      -0.05423335       0.55496469       0.49972124
H       14.58565937       6.24089342      11.73945863      -0.61214590      -0.36091393      -0.14793713
C       10.32683924      20.41709673       6.30909509      -0.31933056       0.18447166       0.36979593
C       11.44498004      19.40524649       6.22698700       1.11848140       0.13484065       0.32071490
O       11.19074665      18.14005989       5.80743320      -0.74861409       1.00614794      -0.04683743
O       12.61843531      19.72934760       6.56079439      -1.01961858      -0.20425597      -0.09163811
H        9.67591167      20.24911178       7.22572979       0.40620066      -0.00812279      -0.37013523
H        9.59964815      20.40652124       5.46118035       0.35772352       0.03390416       0.15011538
H       10.84895943      21.40890610       6.44516086      -0.42984205      -0.43930223      -0.16163064
C       10.10968922      11.12051839       5.84933551      -0.13457815       1.97650542       0.38545001
C        9.22281223      12.13860776       5.07078855      -0.52697072      -0.67275220       0.05431249
O        9.68957070      12.29863875       3.82404225       0.43027584       0.02174302       0.04495918
O        8.13969610      12.60914738       5.45018850       0.59618038      -0.13618209       0.10167865
H       10.60586313      11.74801464       6.63480685      -0.18722127      -0.12968447      -0.03845299
H       10.93828922      10.79776743       5.28233018       0.30706154      -0.55694667      -0.48406336
H        9.49460538      10.43543613       6.36593878      -0.33240138      -0.66506040       0.17795013
C        3.83745352      18.26115064       2.54046290      -1.21642426      -0.04589469       0.70013140
C        3.78771022      19.61789781       3.22073881       0.03478523       0.05966054      -0.06276921
O        2.94730683      20.46033216       2.92579670       0.25419139       0.11544625       0.16615024
O        4.72533558      19.83615431       4.21991323      -0.78103344       0.23552781      -0.63887835
H        4.55673424      18.19023064       1.75870349       0.52715139      -0.01736696      -0.34169999
H        2.80165964      18.17016878       2.09426242       0.53988349      -0.17057590       0.17336883
H        3.99991587      17.49142868       3.33771804      -0.02405575       0.12375241      -0.48880903
C       15.28969151      18.84888627      19.76405905      -0.43830764      -0.37578427      -0.37557023
C       -2.44744715      18.77248117      19.24575879       0.00361740       0.75340363       0.62479375
O       -2.16330549      17.82908994      18.53712166       0.59155426      -0.71657619      -0.72669012
O       -1.61447736      19.78490764      19.57335354      -0.56306976      -0.20240173       0.03635860
H       14.67371969      18.84130835      18.83704119       0.02732810       0.24717817       0.13436236
H       15.04485026      19.71658751      20.36860401      -0.08301427      -0.01928940       0.10530453
H       14.95290285      17.86496544      20.19015957       0.34191723       0.41553516       0.13584256
C       -0.17020579       5.63998162       6.50918178      -1.08360618      -0.49087934      -1.12691565
C       -0.21691377       6.81849305       5.48009540       0.37333395      -0.50813251      -0.29925379
O        0.35001602       6.81609449       4.36628278       0.02746509      -0.36172771       0.39860878
O       -0.94663852       7.83321859       5.85517815      -0.50017977      -0.00147040       0.86567054
H        0.56194702       5.77485375       7.26689473       0.38195032       0.24493634       0.50605119
H        0.15461796       4.74800533       5.88876556      -0.22272501       0.34725402       0.40350506
H       -1.21752048       5.43152522       6.98103445       0.95062663       0.19185160      -0.37809311
C       13.50148534      13.34874235       9.30742306      -0.09513372       0.22765077       0.81108132
C       12.46624592      14.40550166       9.68820668      -0.59191725       0.44255988       0.27944607
O       11.39553041      14.47950515       8.98302160       0.21687916      -0.10106225       0.03614668
O       12.74063146      15.18670688      10.67911055      -0.00726659      -0.29063367      -0.31083512
H       13.01100018      12.41564067       9.04437495       0.07411953      -0.09016724      -0.26260977
H       -5.02472691      13.20690017      10.20779554      -0.01277142      -0.13785917      -0.24523481
H       14.10735903      13.80963305       8.54603685       0.16475482      -0.11352422      -0.40361872
C       -2.57215207      12.99364705      12.11843054       0.33217323       0.91294763      -0.73871626
C       -2.30734595      11.55138809      12.53845387       0.29750869       1.01202518       0.55521981
O       -3.07503173      10.68852904      12.13792431      -1.01028167      -1.32823601      -0.72121957
O       -1.36294226      11.38028533      13.36750815       0.50619257       0.15713119       0.18617562
H       -2.75196643      13.66409240      12.98268637       0.20194487      -0.22854168      -0.09866033
H       -3.46059908      13.17352947      11.40359682       0.72565305      -0.30733252       0.43160567
H       -1.58219677      13.37507643      11.64900633      -0.89181185      -0.16970637       0.23482067
C       12.76924165      12.15357432      21.13716431      -1.00869542       0.16902099       0.17735263
C       13.06985838      12.46888714      19.65974941       2.32523198      -0.23131356       1.31640709
O       12.14415553      12.74803442      18.91920780      -2.03511287       0.44151637      -1.45127342
O       14.29989277      12.47133461      19.34424242       0.06936104      -0.08611119      -0.04250957
H       13.39555684      11.34151728      21.54112612      -0.23898986       0.03215627      -0.05285282
H       11.64218559      11.99346252      21.20133554       0.68773664      -0.24816063       0.16865977
H       12.89460275      13.03501848      21.80303263       0.19197023      -0.09097284      -0.23510395
C       -4.49085809       8.96217247      19.50820075       0.21973967       0.71089533       0.04375039
C       -3.03106092       8.56163205      19.69965910      -0.51777904       2.27134904      -0.54765488
O       -2.27964064       9.58898781      19.29047445       0.20604340      -0.44830011      -0.12578888
O       -2.52504642       7.59807685      20.23742072       0.21528805      -1.46016058       0.63710896
H       -4.79107796       9.74482695      20.29270818       0.24301740      -0.63485125      -0.43149893
H       -5.10253064       8.09523931      19.53275338      -0.53436107      -0.43064542       0.06514129
H       -4.61028997       9.50922893      18.52633900       0.12113149      -0.34091778       0.52639751
C        4.96466993      13.90166533      17.10233387      -0.46676716       0.34353726       1.22954886
C        4.40272325      13.46559653      18.46675900      -0.01602223       0.50967840       0.11066401
O        3.67943694      12.50572355      18.71231611       0.15482654      -0.09053261      -0.29367087
O        4.70478470      14.39726094      19.41890935       0.09555097       0.07407815      -0.44062377
H        4.14093357      14.35504882      16.57332347      -0.18776830       0.34099129      -0.22008095
H        5.20544340      13.05865392      16.55359070       0.45184985      -0.98174760      -0.68753063
H        5.78474587      14.60382801      17.24289978       0.01042245       0.02014552      -0.09949791
C       13.66840686      21.28263010      12.44964752       0.70855369       1.32214347       0.69810719
C       12.29107338      21.77371041      12.34305438      -0.76538759       0.24508489      -0.11313786
O       11.92319203      22.25738055      11.24627781      -0.22791309       0.00640340      -0.11799384
O       11.56759238      21.77511830      13.43632231       0.19702232      -0.04122802       0.01620919
H       14.11592534      22.14696696      13.07229475      -0.02588339      -0.65126189      -0.39243618
H       14.20833748      21.30227240      11.52963157       0.19695614      -0.13050494      -0.46722690
H       13.81314468      20.40630518      13.01520550       0.05035913      -0.69326353       0.36552877
C        3.39558697       9.73706607      14.78280723       0.26819244      -0.36543626       0.49666203
C        4.34154141      10.78074396      14.29268426      -0.21374445      -0.79615591      -0.34891549
O        4.07382747      11.91365406      13.98889204      -0.49764699       1.04394336       0.04179669
O        5.55295124      10.26519970      14.07369874       0.69518739       0.07031767       0.11903312
H        2.99387180       9.10495055      14.00135650      -0.09166031       0.00303812      -0.28163174
H        2.60615331      10.13310526      15.37797544      -0.52257831       0.32753900       0.10832984
H        3.91307479       9.05542703      15.46363266       0.12917721      -0.10987247      -0.00111858
C        5.04448491      15.42956253      13.10763940      -0.13341254       0.38848140      -0.68369237
C        4.28735927      16.50000154      13.79350665      -0.22322570      -0.21390619       1.13948151
O        3.93105908      16.34982643      14.99118623       0.02137752       0.19939124      -0.50096389
O        4.12381987      17.59152926      13.08869187      -0.15823223       0.57961692      -0.28273820
H        5.80020852      15.95116823      12.53472982       0.34123339       0.01384009      -0.14993303
H        4.45370767      14.92709653      12.32939595      -0.07218148      -0.18828735       0.17038772
H        5.47732082      14.79710550      13.84083190       0.14658309      -0.55745343       0.25340869
C        6.32012027       6.75360581      14.91000248      -0.08934750       0.39572968       0.58649864
C        6.19262632       6.30801766      16.38029629       0.95560697       0.99345659      -0.31798186
O        4.98041994       5.89702449      16.67768699      -0.32087489      -0.21526771      -0.63460707
O        7.12422485       6.48691150      17.18731950      -0.30956112      -0.31497238      -0.05575004
H        5.62390452       6.11404727      14.41902800      -0.11975469      -0.39068918      -0.69422289
H        7.36172202       6.78615683      14.53234386      -0.32054818      -0.17688659       0.09111245
H        5.87453339       7.77737766      14.80229784       0.21703434      -0.25174461       0.11627958
C        0.56358879      16.95825404      15.43175574       0.40151025      -0.61360981      -0.31018728
C       -0.28267975      17.38528704      14.22587227      -0.02884738      -0.79430304       0.32420474
O       -1.40123445      16.58179873      14.09548244       0.24441460       0.33204780      -0.44601345
O        0.04407002      18.25420944      13.44052247       0.02520835       0.35058105      -0.27172952
H       -0.03492182      17.04702954      16.33357910      -0.00154407       0.27080274       0.24668605
H        1.62354024      17.36988330      15.47490941      -0.81871425       0.00662324      -0.03592433
H        0.70464021      15.84035378      15.37336834      -0.08338776       0.42695278      -0.12346820
C       11.70301862       8.71014883       3.60044739       0.08796521      -1.33737004       0.79990384
C       12.83514050       8.51517963       4.74521138      -0.29492440       0.39229486      -1.01828249
O       -5.13025980       8.50020304       4.41323057       0.05003766       0.00061007       0.20089029
O       12.37971204       8.40415643       5.99654063      -0.55247781       0.02314705      -0.58251151
H       12.07585488       8.32932472       2.59681176      -0.19208977      -0.08661486       0.70526382
H       11.50014218       9.73587963       3.38737901      -0.16247895       0.61254111       0.17629456
H       10.76710447       8.16735851       4.02407173       0.63882945       0.47769447      -0.65256489
C        2.27685920      18.58614539       6.42824658       0.70092018      -0.05223465       0.49657058
C        1.44952227      17.49516606       7.01983616      -0.17197128      -0.46085204      -0.32695411
O        1.14601795      16.52384948       6.13768522       0.24520026       0.52402404      -0.01700523
O        1.11856476      17.45048187       8.20445094      -0.16490643       0.13556073       0.24248617
H        3.21346447      18.13607472       6.04620482      -0.06162328       0.11319108       0.14731449
H        2.49889159      19.39360415       7.14573690       0.04253409      -0.22748920       0.00457637
H        1.84023043      19.05321878       5.59513421      -0.55095467       0.28056331      -0.79635400
C       11.97861108      17.83053406      13.46956154      -0.67176569      -1.09151828      -0.04775520
C       11.40042389      17.58768946      14.85046867       0.76179945       0.46228019       0.79100244
O       10.40937634      16.95347255      15.15972696      -0.81025767      -0.47021291      -0.32168931
O       12.17088873      18.13328555      15.83152746       0.18308018       0.25899107      -0.65764706
H       11.69582380      18.76657228      13.07703220      -0.02769204       0.96157341      -0.04020943
H       11.55089004      17.14169655      12.70136724       0.18099635      -0.06824342       0.38286823
H       13.03450692      17.68297116      13.54084311       0.49077903       0.07889294      -0.12853755
C        7.88464322       5.89476352       2.37809601       0.26050418       1.00833589       0.00711118
C        8.15702114       5.23020685       3.67519352      -0.19722221      -0.92490259      -0.19200401
O        8.95549459       5.93772793       4.43362379       0.33976197       0.41018757       0.49584473
O        7.72031864       4.10946212       4.00293135      -0.00335883       0.30388389      -0.11006713
H        8.76141118       6.00613496       1.71300263      -0.01410003      -0.03868478       0.22928898
H        7.50002243       6.91506727       2.59053777       0.25759646      -0.08194254      -0.01182017
H        7.11640940       5.44821376       1.83191232      -0.62653036      -0.67580367      -0.48009597
C       10.03939295       4.90660599      18.08919362      -0.38758083      -0.15036355       0.75193442
C       11.27568181       5.72502429      18.37988109       0.35879318       0.84302489      -0.33232861
O       12.18303897       5.62634747      19.22033122      -0.55703622      -0.21899997      -0.27168928
O       11.23826716       6.75292348      17.45024076       0.62565998      -0.19194106       0.16125134
H        9.15922559       5.56949232      17.92611497       0.22810396      -0.21564484       0.13747495
H        9.79415738       4.04007194      18.72913769       0.09169940       0.36847122       0.35249413
H       10.19562691       4.39158754      17.18289069       0.23741200      -0.19311890      -0.96416890
C        6.69113769       7.95104292       6.67722549       0.76506875       0.28573163      -0.23797519
C        6.08162069       8.08042052       5.29625148      -0.22452902       0.39326430      -0.16202566
O        4.97374457       7.64260838       4.94990473       0.56882967       0.04409030       0.12917110
O        6.84380797       8.91675659       4.50491623      -0.30867628      -0.43878524       0.39086700
H        6.23782861       8.69336156       7.32492298      -0.18028025       0.21448136       0.11775279
H        7.79835886       8.16923766       6.68644015      -0.51614370      -0.08923881      -0.13626888
H        6.54554205       7.00210127       7.15306397      -0.18788567      -0.41059846       0.04760358
C       11.47427133       6.87666306      14.10042069      -0.87010397       0.55069821       0.38352260
N       10.17280367       6.42876163      13.42514465       1.11756213       0.48747158       0.15911834
C        9.57427160       7.23787821      12.46907377      -0.11435416      -0.63582230      -0.85371499
C        8.82068512       6.36115931      11.68521852       0.10551204       0.44913787       1.06770340
N        8.84676706       5.13636863      12.28424491       0.80235814      -0.19061959      -0.05702596
C        9.78573030       5.15307997      13.26453013      -0.94469467       0.96654756      -0.62558296
H       11.27468663       7.30655455      15.12759522      -0.04027075      -0.25716901      -0.58290617
H       11.93529433       7.68167647      13.48352639      -0.11294481      -0.36913765       0.11147805
H       12.06223465       5.99428875      14.22188994       0.41684129      -0.30998439      -0.04297052
H        9.99110168       8.19257820      12.16386051      -0.12105338       0.12179672       0.35105625
H        8.13816075       6.48535211      10.90820856      -0.49703022       0.35895877      -0.76589214
H        8.62786207       4.23187945      11.74177104      -0.27162580      -0.23890830       0.26640243
H       10.12362918      23.45001984      13.72969413       0.52168868      -0.91231894       0.60942257
C        9.17452776      10.10435734       9.73325572       1.12800514       0.09440601      -0.17655332
N        8.16059863      11.05777789       9.42220784      -0.47441251      -0.80350197       0.52885682
C        6.79959549      10.73325519       9.58055859       0.10569358      -0.25021513      -0.05586558
C        6.13509950      11.91068219       9.34951729      -0.30389859      -0.29294318       0.14908339
N        7.06259575      12.87955752       9.08322716      -0.52222935       0.83320561      -0.01500789
C        8.28843795      12.36540172       9.15805120      -0.21889944       0.63459195      -0.54740913
H        9.35518314       9.86932200      10.79738469       0.02065539       0.52413070      -0.01302286
H       10.10445887      10.44147460       9.19497718      -0.26380942      -0.26547697       0.41362661
H        8.88275006       9.16284271       9.34927123      -0.17862651      -0.65104598      -0.50681959
H        6.44075702       9.69315853       9.77805498       0.31730224       0.55194748      -0.04825079
H        5.04312551      12.07402738       9.37525589       0.37952555       0.11731315      -0.04137708
H        6.45968180      14.27965243       9.19116946       0.05944084       0.28229001      -0.07111757
H        9.14993502      12.95096632       8.76423763      -0.10438420      -0.44718554       0.44588128
C        7.61016069      18.22633794      13.89657605      -0.92867035       0.40270941       0.88169345
N        7.76071790      19.41241855      14.81449938       0.40589603      -0.91902068       0.84938475
C        8.03790471      20.73565595      14.62211004       0.24634359       0.43195753      -0.46456828
C        8.25256522      21.30787639      15.85582925      -0.43521496       0.07681741       0.12496112
N        8.02669634      20.36410985      16.84197674       0.70376673      -0.03198189      -0.02789591
C        7.87784589      19.20899721      16.20328915      -0.54007275       0.77804867      -0.73503208
H        7.58304507      17.31939246      14.56295307      -0.11349539       0.41931758      -0.39617277
H        8.43052569      18.15241177      13.26217158       0.94289937      -0.03640987      -0.62721163
H        6.70110461      -0.78719497      13.27677451       0.11306557      -0.13887467       0.21471809
H        8.14849687      21.19480461      13.64709500      -0.03656101      -0.11590557      -0.03136427
H        8.40632199      22.35367527      16.12257710       0.01694071      -0.11304315      -0.12494084
H        8.47259138      20.51656108      18.52323202      -0.53695378      -0.10523275       0.19725637
H        7.61552602      18.29971438      16.65813547      -0.06503158      -0.61088386       0.28157981
C       -2.06410479      11.55491840       7.86682747      -0.71742906       1.59529071       1.75979448
N       -1.83182289      13.03105971       7.51957400      -0.04819346      -0.92905662      -0.09530944
C       -2.24266310      14.12109957       8.30855822      -0.11998002      -1.16802497       0.22729415
C       -1.41637443      15.11209123       7.95882857       0.81360144       1.70213543       0.25931155
N       -0.57755584      14.75868738       6.90285314      -0.25223812      -0.27092168       0.17791540
C       -0.85748696      13.47008882       6.66232355      -0.19119873       0.12061307       0.45920108
H       -1.48451528      11.26195244       8.77483665       0.04923007       0.28165995      -0.28914090
H       -1.86724144      10.85884089       7.13733108       0.21744070      -0.64473839      -1.25117110
H       -3.11503824      11.51944764       8.23464126       0.20541993      -0.16081000      -0.29391324
H       -3.00146864      14.01131740       9.08578169       0.25393398       0.00985231      -0.13577524
H       -1.21008419      16.07573390       8.53896156      -0.32796555      -0.64781463      -0.64362246
H        0.47698367      15.82836169       6.52757222      -0.05405104      -0.18920795      -0.04468763
H       -0.40711491      12.78275156       5.96105120       0.10807856       0.09857783      -0.09211106
C       -1.61847586       8.11916046       9.12340318      -0.07405605      -0.55376300       0.26616361
N       -3.11870959       8.17339263       8.93828167       0.53181778       0.25327339       0.62928864
C       -3.92689580       9.03114633       9.63926093      -0.36588523      -0.00662321      -0.28400602
C       -5.12212030       9.10603374       8.95063535      -0.04466698       0.62753428      -0.02626220
N       -5.04199494       8.32927311       7.80978312       0.53694129      -0.40161422       0.53896506
C       -3.82901023       7.72973343       7.89622296      -0.71121832       0.32410635      -0.39268176
H       -1.31430674       7.09076326       9.45168911      -0.16967182       0.23804817      -0.26218532
H       -1.20464409       8.77217615       9.96584512      -0.56177224      -0.15023228      -0.81812557