640
Lattice="18.700606 0.0 0.0 0.0 18.700606 0.0 0.0 0.0 18.700606" Properties=species:S:1:pos:R:3:forces:R:3 energy=-80130.55419807724 pbc="T T T"
C        7.42595856      12.07880807      10.97296391      -0.35730584       0.16499262       0.95725129
C        7.14998685      12.90673688       9.78106752      -0.23950996       0.80362371       0.28300616
O        6.44172216      13.97458865       9.90503847       0.34198182      -0.41736069      -0.35608886
O        7.65284842      12.40551669       8.72906196      -0.04262093       0.03202450      -0.67609679
H        7.19337559      12.61061582      11.93985978      -0.11361636      -0.41401835      -0.44887496
H        8.44788008      11.74686755      11.04464061       0.32611805      -0.12558743      -0.07511103
H        6.79502795      11.21149602      10.74982371      -0.03113166      -0.17610335       0.48201759
C       19.27590238      19.74555457       8.04046773       0.34128010      -1.16755929       0.60062679
C       19.83812308      18.74196352       7.08338184      -0.24784999      -0.76220737      -0.22815631
O       21.00706976      19.02156601       6.55903747       0.52989230       0.47305559      -0.18128821
O       19.25020870      17.68301356       6.83402141      -0.21971424       0.01055491      -0.05271261
H       20.07286978      20.39879206       8.33810421       0.13915720       0.42986256       0.15278904
H       19.03004081      19.02893485       8.91483473      -0.26379307       0.90041564      -0.55367758
H       18.48896819      20.24366671       7.49472362      -0.41212940       0.16942980       0.23039879
C       18.61325788      19.55496270       3.38378689       0.30259577      -1.26601286       0.26584861
C       18.43373967      19.42617812       1.90871544      -0.17954765       0.49203796      -0.47938666
O       17.31120810      18.99726612       1.47182973       0.23567519       0.25201835      -0.32170694
O       19.40517548      19.79721948       1.12248047      -0.27819285      -0.15921024       0.41247627
H       18.96577830      18.50585947       3.66451324      -0.32764519       0.39440235       0.03161954
H       17.76122426      19.81165102       4.03144055       0.06816450      -0.03134052      -0.31791414
H       19.49005880      20.09845891       3.61696439       0.45248361       0.59197217       0.11520721
C        8.81575431       5.80851353       5.69542984      -0.04801671       0.54564139       0.14955032
C        7.86232628       7.09017331       5.54775989       1.19123025      -0.57334626       0.39608819
O        6.69287544       6.86907508       5.22414597      -1.18805766      -0.41679153      -0.40323995
O        8.31159016       8.23887576       5.80778935       0.28746198       0.32760503      -0.02789331
H        8.30448932       5.02214409       5.15939876      -0.11976143      -0.38627046       0.16004863
H        9.12981035       5.58272154       6.74235314      -0.42854804       0.02463597      -0.22265459
H        9.79649077       5.86652657       5.23944027       0.20163902       0.37748596      -0.32671778
C       17.72124784      21.97369120      14.58528345      -0.52102640       0.47847815       0.26139126
C       18.14755410      22.27839148      13.15842323       0.75695188      -0.16150386      -0.45072916
O       17.60458564       4.51404528      12.48460050      -0.26289211      -0.11183253       0.42227175
O       19.14942759      21.58576423      12.71213393      -0.35022610       0.32516795       0.08421265
H       16.96795702      21.20405527      14.68529248      -0.03212586      -0.41548215      -0.30554820
H       17.11201632      22.82874974      14.90856807       0.24097284       0.13360769       0.18262388
H       18.48981333      21.70193623      15.32932757       0.06220923       0.16459288      -0.25447137
C       15.85834440      15.75064289      -1.94964474      -0.88477365      -0.62051224       0.49813648
C       16.69337121      14.46864884      -1.35171149      -0.73653078       0.64577757      -1.44991563
O       17.76226960      14.76068884      -0.80287144       0.71754636      -0.05829645       0.65589469
O       16.24318412      13.33271312      16.95780136       0.08244210       0.06261020       0.38449689
H       14.80277583      15.35057731      -2.02602638       0.40251110       0.21746274      -0.12850399
H       16.16772106      16.03310425      -2.98598660       0.02054845      -0.00104378       0.48906268
H       15.74318487      16.61168871      -1.22892179       0.36535046      -0.28801792      -0.42760418
C        3.18638612       3.52789523      13.86264877       0.51555823      -1.38925426       0.50312598
C        3.79417443       4.28602474      14.96527610       0.27785237       0.58452492       0.08897928
O        3.96626330       5.55767388      14.64983472       0.45192534       0.50684815       0.14385133
O        4.15430501       3.83677651      16.06033793      -0.17985848      -0.27995243       0.06454738
H        2.32109160       3.04378788      14.26175364      -0.42037967      -0.48006795       0.22244696
H        3.90225191       2.70632471      13.55986285      -0.37995733       0.39761104       0.08928762
H        2.78417462       4.02763814      13.04060268      -0.05374990       0.74047281      -0.79568742
C       14.90269618      14.83275674       9.34770081       0.55940225      -0.42204939      -0.16732932
C       16.37314197      14.79481704       9.07979458       0.89604549       1.13299492      -0.63931178
O       16.96859860      15.92545143       8.99386850      -0.21208067      -0.90330808       0.14868484
O       16.97956591      13.64206756       8.88838778       0.33777020      -0.05583485       0.23201864
H       14.80216727      15.79955497       9.74279570      -0.42000237       0.68188814       0.62216778
H       14.64732939      14.00499804       9.96290857      -0.31036080      -0.32042278       0.52667186
H       14.28432182      14.79072092       8.47983032      -0.18189674      -0.07870036      -0.61254840
C        5.39077837      20.09667958       7.13768762       0.93844161       0.54508070      -0.09379111
C        5.74309875      19.73294110       8.55222271       0.00285037      -0.95177974      -0.29490821
O        6.10196038      18.42851795       8.83722765      -0.11525647       0.69176111      -0.21893407
O        5.64120607      20.58453852       9.41980936       0.27665163       0.30116190       0.58586646
H        6.14370003      20.90197027       6.78032188      -0.31979854      -0.90208704       0.10167406
H        4.53854022      20.73650808       7.18950118      -0.69538173       0.04867740       0.01024522
H        5.27035357      19.24466938       6.46767012       0.05254948       0.16760789      -0.08876221
C        9.02528317      20.58807230       5.80895335       0.98336847      -0.82541513       0.05317441
C        8.23577255      20.65174479       4.57872867      -1.90814385       0.45519962      -0.87240730
O        7.04067650      20.21218404       4.48625916       1.06303704       0.00308311       0.19990341
O        8.73438480      21.32259919       3.53180222       0.10904062      -0.23929177      -0.20645876
H       10.04659418      20.15361503       5.47077315      -0.59449815       0.55377600       0.48904425
H        8.54648955      19.76541577       6.36781007       0.14170964       0.25725644       0.22287569
H        9.10561134      21.53152633       6.40601885       0.03856299      -0.34929953      -0.31805943
C       19.31464117      12.64183151       5.58930511      -0.52325218       0.44259034      -0.36743012
C       19.67011967      13.47421239       4.31751948      -0.16879112       0.11121674       0.26486312
O       18.94232721      14.47506107       3.97112230      -0.03464913      -0.23166602       0.24457249
O       20.69452384      13.07744953       3.70466319       0.43247577      -0.20506332      -0.44026052
H       18.48981914      13.18304290       6.08238703       0.12790261      -0.22391042       0.16903256
H       20.16406880      12.47922418       6.24698163       0.14033996       0.11652869       0.10185828
H       18.97826167      11.64357278       5.27985628      -0.08000718       0.03174335      -0.02258199
C       21.74999974       5.58519996       0.84311359      -0.50262749       0.21536781       0.01680617
C        4.18153266       6.48519168       1.25683373       1.24066618      -0.87604958      -0.69714192
O        4.08460647       7.50760830       1.91615838       0.05616890       0.03594848       0.01479913
O        5.40822427       5.96607035       0.73528563      -0.28089751       0.79652397       1.23851251
H       21.81552733       4.54713015       1.23934045       0.04999458       0.34522690       0.07065891
H       21.72042504       5.45713268      -0.25438397       0.03557327       0.09918962       0.06465148
H       20.83381740       6.11138662       1.19789047       0.12176348      -0.35710239      -0.14156011
C        9.72404806      14.89187004       2.02662418       0.07847610      -0.55564387      -0.11571356
C       10.36005743      14.23416856       0.79283250       0.15010827       0.43729820      -0.66912436
O       11.68283677      14.19400931       0.85967035      -0.31722854      -0.34044415      -0.19334133
O        9.66153643      13.93485276      -0.23343654       0.47828782      -0.06680778       0.71201984
H        8.92972818      15.55731899       1.74975317      -0.24019262       0.32734795      -0.30249516
H       10.51646237      15.44004742      21.24945392      -0.16140630      -0.17803481       0.24680939
H        9.17430572      14.11765710       2.60115886       0.35041611       0.07571852       0.13341747
C        4.52124298      15.94953293      -1.90627500      -0.22136039       0.91433936       0.13698480
C        5.68229703      16.77006195      -1.40765198       0.53763826      -0.00597329       1.19097871
O        6.62926627      16.97513880      -2.30540212      -0.26085968      -0.13558493      -0.19829904
O        5.79642185      17.15743218      18.49738156      -0.26278994      -0.19479707      -0.85259929
H        4.21851639      16.37556574      -2.85122846      -0.22205392       0.13688576      -0.28896947
H        3.68332094      15.98738950      -1.21156047      -0.02167367      -0.01296218       0.06694411
H        4.77052545      14.95109781      16.56855779       0.33676434      -0.81683525      -0.05555444
C       14.75033449       9.63357962       2.42594196       0.76176230      -0.45961628       0.59684541
C       15.50836372      10.08011847       3.71489539       0.02985029      -0.28869862       0.27462569
O       14.75737435      10.20035529       4.79125318       0.70505394       0.06784588      -0.58276284
O       16.80773978      10.15728559       3.68366318      -1.31041720       0.09615964       0.24078546
H       15.45090247       8.88945434       1.97508671      -0.40943772       0.07967148      -0.03666183
H       14.60859270      10.41658869       1.71348409      -0.03391058       0.46862442      -0.27338487
H       13.77965215       9.19242482       2.67644082       0.10007059      -0.00500887       0.01198737
C        9.58190548      18.23494256       1.89119218       0.13898240       0.15452160      -0.73873398
C       10.95162529      18.18689321       2.50263148       0.30329832       0.50884942       0.62297057
O       12.00214455      18.32891950       1.87501958       0.11894314      -0.13337555      -0.41803588
O       10.97457878      18.22149723       3.86128219       0.20330299       0.13250709       0.09778960
H        9.55035073      17.89193799       0.82176391       0.17839317       0.14090177       0.52207352
H        9.30648669      19.31415620       1.87903464      -0.01788756      -0.26906043       0.03734661
H        8.83624380      17.66980568       2.40930630      -0.29025504      -0.10687851       0.40290004
C       10.63174272      16.92024601       6.95990928       0.91504487      -0.72015637       0.57709613
C       11.64425614      17.90135969       7.58073813       0.13611767      -0.92761976      -0.53387524
O       11.37936577      19.09545742       7.61529316      -0.03634939       0.56216588       0.35884868
O       12.76654824      17.30856780       8.02559597      -0.52725466      -0.12509132      -0.24718419
H        9.92940395      16.72897184       7.75265977      -0.30937449      -0.17418442       0.40795597
H       11.09141983      15.90017962       6.72867278      -0.29261403       0.74247028      -0.06081371
H       10.02812589      17.36845777       6.20510032      -0.03272218       0.18045619      -0.57755668
C        9.87320415       4.16669314      16.43038668      -0.43856505      -0.70341386       0.77132432
C       10.65902445       4.52154342      -0.95077153       0.29529323       0.80204882      -0.20558171
O       11.30258755       5.63693122      -0.82810163      -0.39010847      -0.16473697      -0.68107801
O       10.66607729       3.71662938       0.01028737      -0.58445888      -1.06679709       0.07362694
H        9.28597678      23.70104487      -2.61838303       0.08365471       0.39661411      -0.19696567
H        9.09004450       3.36896131      16.62291812       0.47509045       0.33823181       0.11210778
H       10.48220661       3.73615646      15.63594100       0.22679155       0.15748695      -0.09665902
C       12.23460094       9.89917009      13.89648518       0.61710042       0.51808889      -0.68359896
C       13.68148754       9.85422242      13.44484554       0.02696848      -0.36076237      -0.88047021
O       14.14618024      10.44155124      12.41173405      -0.43182484       0.02019101       0.66686580
O       14.37892572       8.98559555      14.11829128       0.96623002      -0.02962873       0.23894031
H       12.06873445       9.29313443      14.73944666      -0.12078627      -0.45822455       0.62298110
H       11.57321973       9.62496171      13.08575836      -0.12192013      -0.10554389      -0.22737901
H       12.03242363      10.93023572      14.09990561      -0.28093159       0.45757922       0.18399992
C        4.12058270      14.76640819      12.47602717       0.22327841       0.90632629       0.86530734
C        4.22074083      16.22428304      13.06512329      -0.39673766      -0.67082395      -0.88289333
O        5.36643181      16.88381299      12.81411395      -0.27089703      -0.54258242       0.11056456
O        3.21417728      16.68348345      13.59964414       0.18216682       0.32497457       0.26959320
H        3.76493753      14.21166782      13.39157212       0.24477957      -0.08916911      -0.64301768
H        5.07616790      14.52766944      12.02523481       0.20925265      -0.40546367       0.07326719
H        3.39377275      14.75757524      11.66343440      -0.21425007       0.03014672       0.07712352
C       18.26794511       4.34921177       1.60923440       0.23691807       1.22457718       0.16862884
C       18.25304385       4.64060596       3.13380010      -0.31449994      -0.46707051      -0.73654433
O       17.47080879       3.99391774       3.82498759      -0.05348507      -0.02211475       0.46047456
O       19.04892071       5.61185605       3.62534609      -0.16812406      -0.03882301      -0.06521755
H       17.24772997       4.06383817       1.27663449       0.27191510       0.05410823       0.14488429
H       18.99618771       3.59415288       1.31462026       0.07423255      -0.12702883       0.08053443
H       18.56241287       5.33443084       1.13254668      -0.19686697      -0.55490793       0.03668440
C       11.90848004       5.22116791       8.34405803       0.15280815      -0.08067585       0.01327021
C       13.27781249       5.94797376       8.14801861       0.03283648       0.05754829       0.85312975
O       14.04261596       6.07017211       9.19713396      -0.49510815      -0.25934426      -0.76815914
O       13.49612726       6.44448519       7.00069056       0.08902102      -0.05875431      -0.03627942
H       11.82564071       4.52238068       9.19478029       0.35644819      -0.19079573      -0.25190426
H       11.60962038       4.77879283       7.37495059      -0.07943528      -0.00761872       0.26716634
H       11.14718673       5.92831793       8.68751831      -0.05453987       0.17773851      -0.28815387
C       12.04139656      11.89590702       3.27463638      -0.70251171      -0.20627338      -0.12679536
C       11.11453146      12.00838291       4.55474991       1.32467713       0.16650117      -0.45760069
O       10.09568650      11.36148129       4.75328850      -0.18089347       0.04301357      -0.21985741
O       11.61341691      12.88999556       5.44351042      -0.27257633      -0.23642248      -0.05381352
H       11.93292551      12.88766470       2.77344955       0.11653958      -0.24735477       0.02906603
H       11.56809336      11.12223733       2.57352314       0.48096218       0.47141980       0.48601624
H       13.14174517      11.71133491       3.47679395      -0.72115895       0.00344923       0.03008423
C       16.90061542       5.91305149      -1.54691142       0.98544291      -0.02574888       0.38477308
C       15.99117541       6.11709083      -0.38423526      -0.50786909      -0.21759413       1.28532004
O       16.33452158       6.99751476       0.49129605      -0.26232541      -0.13915568      -0.41026151
O       14.96813089       5.30507445      -0.23322655       0.78509074       0.56802615      -0.36198098
H       17.07658382      25.47451486      -2.15832565      -0.18389768       0.45673207      -0.32449773
H       16.59889287       5.07947879      -2.09986876      -0.34414987      -0.66299111      -0.68338705
H       17.94902840       5.65342187      -1.23687534      -0.35838130       0.07322749       0.18309768
C       14.41058123      17.73756640      13.39905207       0.36156668       0.20818881      -1.23448027
C       15.92903980      17.94999527      13.41529828      -1.21557484       0.00164793       0.50752202
O       16.38688312      18.57988125      14.41086264       0.76835001       0.50060288       0.44790388
O       16.60534890      17.46150385      12.51085100       0.67661587      -0.47037900      -0.73482064
H       14.22810230      16.71289947      13.08357779      -0.11205587      -0.17360496       0.14823456
H       14.03449956      18.33276662      12.51110215       0.07451270      -0.10895254       0.58085749
H       13.94457780      17.98722124      14.32632686      -0.27463074       0.10781743       0.31936441
C        6.31176158      13.94106037       0.69285778       0.59092328       0.47436718       1.31909995
C        6.41519899      12.69745849       1.52979022      -0.09300406       0.63579097      -0.15094038
O        6.35145039      11.59450119       0.85373939       0.08409972      -0.90021015      -0.73881349
O        6.53584943      12.69960264       2.75127256       0.20319184       0.12217728       0.31050713
H        6.24294222      14.83769285       1.35329329       0.10294956      -0.26934591      -0.24003042
H        5.43877051      13.88086785       0.12610542      -0.76049590      -0.00448198      -0.75332506
H        7.21890867      13.97561663       0.10104827       0.08348433       0.21557530      -0.18443057
C        3.73640225       5.30907003      10.05861774      -0.70491634      -0.02714699       0.44774476
C        3.81528051       6.35276997       8.96768602       0.58479029      -0.62627925       0.17023510
O        3.65412508       5.95626269       7.76874439      -0.24105231       0.16973943      -0.22064983
O        4.14494185       7.48740050       9.36748551       0.03438986       0.87076853      -0.17749423
H        2.74596209       5.41761784      10.56280593       0.22130984      -0.10666355      -0.12219418
H        4.41836501       5.53029026      10.87401794       0.27994318      -0.09534808       0.01481679
H        3.82018104       4.29250649       9.70004778       0.07428450      -0.23035510      -0.04774971
C       10.89911191      19.24480402      14.03902541      -0.14018514      -0.03557499      -0.90890573
C       10.92160859      20.34131266      12.92766878      -1.35576599      -1.09705691       0.24576692
O        9.91522649      20.25378992      12.06721036      -0.08880595       0.13277223      -0.52592805
O       11.67007153      21.28026046      12.88790628       1.45017458       1.02265471       0.30236774
H       11.79444033      18.59356095      13.92868683      -0.19731442       0.31914204       0.36859719
H       10.00072830      18.60943626      14.01065538       0.05986245      -0.01109376      -0.33692838
H       10.72195390      19.78115446      14.94914548       0.46707314       0.15577889       0.54070762
C       20.67199656      12.97978297      17.30503294       0.36742147       0.62549305      -0.76216923
C        2.33287279      12.07995519      16.12732049      -0.70918429       0.07333768      -0.37215512
O        2.40932243      10.84297042      16.23250191       0.27841270       0.04100319       0.20813143
O        2.43858598      12.70173189      14.92582369       0.13083829      -0.74978234       0.32884812
H       19.61124233      12.96501852      17.62593794       0.18853483      -0.17597859      -0.04774820
H       20.88134879      14.00600491      16.92133142      -0.14429310      -0.16082714       0.27098384
H       21.39677215      12.78169234      18.08942790      -0.08365506      -0.06206438       0.27010032
C       11.82908374      13.56731157      15.63814291       0.32733488      -1.26116374       0.27888350
C       11.28743672      13.86640947      14.26838632      -0.16062660       0.11604303       0.33705415
O       11.26039894      15.04089974      13.84214094       0.15013378      -0.10176359       0.00815794
O       10.79423726      12.82939222      13.63042944       0.18473221       0.07316293      -0.59810127
H       12.03238481      14.48611221      16.17029759      -0.05197465       0.01676605       0.24077486
H       12.77632427      12.95245470      15.58964452      -0.12332801       0.48666311      -0.26106716
H       11.27551368      12.75726316      16.23132181      -0.09680643       0.83306480      -0.35990383
C       19.68075908       7.90445260      10.40777142      -0.46546267       0.22903349      -0.92062941
C       19.67608729       9.41913221      10.48239511       0.05564952       0.44594408       1.65921974
O       19.81243455      10.23614489       9.56292143      -0.11075868      -0.31027564      -0.97778063
O       19.53210698       9.89798978      11.73239035      -0.38532521      -0.26355629      -0.49785990
H       19.85843029       7.50020020      11.37656949      -0.27421660      -0.22582804       0.52250921
H       20.48995154       7.50755625       9.80494478       0.20365122       0.18786210      -0.24582621
H        0.03357127       7.55845094       9.87421102       0.46166389       0.15853850       0.54985984
C        8.54952131       9.71917417      13.88156022       0.18359079      -0.10157191      -0.90995654
C        9.21218346       8.49305100      13.19606022      -0.47709261       0.16566448      -0.36866282
O        8.98734145       8.48337758      11.92538137       0.31167401      -0.39931322       0.62284330
O        9.74111174       7.57065573      13.91568511      -0.19742526       0.28005952      -0.23719719
H        8.63617596      10.59563389      13.17837557       0.02544911      -0.32844626       0.48077367
H        8.93578351       9.90531732      14.86820368      -0.05306381       0.16808268       0.29200815
H        7.49765902       9.41034102      13.83989643      -0.08822821       0.20326449       0.31467497
C        3.67551822      15.90717696       7.97306198       0.06741542       0.71676647      -0.48292462
N       21.44909544      14.94882891       8.59160676      -0.62479008       0.16986530       0.30886554
C       21.73373399      13.70309145       9.18688886       1.72246502       0.87671625      -0.66874497
C       20.61473046      13.05887501       9.43602886      -1.56948792      -0.01803238      -0.00596828
N       19.56468161      13.91501413       9.07323134      -0.51143751      -0.22906234       0.02211888
C       20.06215228      15.04762726       8.59375617       0.73341424      -0.78525790       0.21294085
H        3.15123861      16.91595282       7.79650739       0.31784699      -0.68527474       0.41300632
H        3.82651605      15.62327060       6.89698159       0.21071526      -0.08906836       0.45694710
H        4.66301765      16.05881883       8.53785395      -0.80647778      -0.25754182      -0.35967817
H        4.07522727      13.44921758       9.31817455       0.10084868      -0.03938170       0.06615431
H       20.37654640      12.06857149       9.78638479       0.10536480      -0.08464855       0.07114315
H       18.19491182      13.73408061       8.95749932      -0.22180963       0.13821586       0.08621941
H       19.41449889      15.86573406       8.40204720      -0.07995640       0.48686929      -0.39405585
C       11.26487350       7.80802534       2.14846566       0.09489651      -0.77290293      -0.45463516
N        9.81346284       7.76110933       2.05976352       0.02538963       0.91242692       0.01606259
C        8.93322509       8.86143194       2.10648844       0.89869636      -0.33945629      -0.04862970
C        7.72557077       8.36109301       1.91682984      -0.97841736      -1.21089775       0.03460650
N        7.75840341       6.93939179       1.86674926      -0.41524134       0.78405222      -0.42519668
C        9.04474221       6.65516009       1.89618670       0.05681750      -0.14388066       0.08468177
H       11.54289462       7.50172024       3.13990424       0.24818033      -0.19681058       0.30293428
H       11.75834558       8.74366723       1.95049564      -0.27170823       0.47904957      -0.09807286
H       11.66092610       7.10965369       1.37046081      -0.05956937       0.10983252       0.34522267
H        9.14407728       9.86945247       2.34584421       0.46556103       0.43536421       0.03264373
H        6.82875137       8.90184920       1.77034684      -0.51584253       0.18941705       0.11131927
H        6.24981374       6.35048943       1.31812683      -0.52673036      -0.21815606      -0.63410921
H        9.44953780       5.66792009       1.78139562       0.12804493      -0.12833889       0.04018133
C        8.30255443      13.71767871       6.03561528       0.70911419       0.03435651      -0.35147758
N        7.67123150      15.02590865       6.08156092       0.03565912       0.75418846      -0.77367356
C        7.73656466      16.02886523       5.07845509      -0.33225804       0.17895315       0.99546710
C        7.25901602      17.17658894       5.68101804      -0.09727970      -0.05304226      -0.21382613
N        6.90603803      16.91634532       6.99589028      -0.14480105      -0.27671369      -0.18784943
C        7.15360259      15.61262338       7.18112858       0.31963176      -0.51510015       0.64027231
H        8.26980151      13.27453122       5.01683632      -0.02608742       0.23858524       0.27655820
H        7.84528096      13.06480201       6.75333967      -0.24033682      -0.20091610       0.27139166
H        9.37194508      13.83671464       6.35046693      -0.36578076      -0.07386376      -0.23984389
H        8.08326158      15.93301025       4.08120509       0.17661397      -0.30643802      -0.32228294
H        7.09543727      18.15326127       5.23011366       0.06539563      -0.03403742       0.04402732
H        6.33737284      17.71191433       7.89536699       0.25819752       0.16277763       0.00637343
H        7.11900924      15.01171095       8.11573422      -0.25134352       0.31972698      -0.14661620
C        4.83991496      13.26004495       5.15492861      -0.19822166      -0.23882663       0.37279574
N        5.28007821      11.96620743       5.68878828       0.60692899      -0.44137398      -0.52231391
C        5.05686439      11.48777421       6.98031983       0.69556411      -0.55084130      -0.49629039
C        5.88442394      10.36997647       7.07341799      -0.00756943      -0.04358756      -0.38289033
N        6.55104570      10.16144636       5.84666830      -0.63657333       0.86436970       0.32020822
C        6.22072575      11.16738744       5.01325576      -0.97542407       0.21915055       1.31242911
H        3.75642114      13.29760362       5.08697825      -0.19991105      -0.04000038      -0.03843888
H        5.25853134      13.38620126       4.17009599       0.12156464       0.10752246      -0.15809286
H        5.20893718      13.98097742       5.86499775       0.05473428       0.38734302       0.02766695
H        4.39608713      11.96977765       7.70717209       0.15509137      -0.09903102      -0.22716923
H        6.10675239       9.70971194       7.89445878      -0.11819491      -0.09235476       0.09710112
H        7.19012379       9.33216261       5.61193981       0.30626789      -0.17521732       0.27541688
H        6.58295667      11.44806984       4.03905141       0.05248516      -0.13572122      -0.22754658
C       11.81681161      16.98644247      11.34380290       0.35805719      -0.17742387      -0.58943942
N       10.37895987      17.15161727      11.13914691      -0.31830268       0.64939565      -0.40895472
C        9.42779531      16.48658863      11.91099193      -0.17256785       0.36389460      -0.47516443
C        8.21141017      16.86127275      11.36279036       0.56606535       0.15004350       0.01037053
N        8.42030862      17.74409261      10.30339295       0.89160788      -0.59291632       0.63109849
C        9.76761937      17.91396033      10.12654343      -0.45603609      -0.80347073       1.44687995
H       12.02839224      16.30824789      12.18822031      -0.16423032       0.27227819      -0.06773104
H       12.44177270      17.90288042      11.31876682      -0.46942518      -0.03411858       0.25858230