640
Lattice="18.700606 0.0 0.0 0.0 18.700606 0.0 0.0 0.0 18.700606" Properties=species:S:1:pos:R:3:forces:R:3 energy=-80127.77430397266 pbc="T T T"
C       14.82841757      17.93506187       7.14496247      -0.65731258      -0.52674635       0.18474809
C       15.25355166      17.14239063       5.95993293       0.23224645      -1.18733235       0.23759187
O       16.35872726      16.49609357       6.02094375      -0.29730377       0.85692487      -0.16736385
O       14.36406416      16.79064034       5.07747720       0.41319854       0.15759470      -0.23674869
H       13.29307497      16.90916146       5.32311335      -0.38559777       0.10107447      -0.23457054
H       14.94855514      17.17805241       7.91649120      -0.16185032      -0.13107111       0.32821493
H       13.80051029      18.31661884       7.19298451       0.03304692      -0.13811965      -0.22560022
H       15.45304485      18.68928194       7.49354645       0.86393010       0.91049699       0.10566283
C        8.43951026      18.67650936       5.33845342       0.22594624      -0.27362533       0.13709199
C        6.95056821      18.83207521       5.41206828      -0.76314161      -0.04442699      -0.24862628
O        6.55943984      18.39059787       6.57608207      -0.52032764       0.12253474      -0.13118244
O        6.17041633      19.22995234       4.46923912       0.73915791      -0.10423656       0.61831251
H        5.81390699      21.17957106       4.50626443       0.02385253       0.64409015       0.68519682
H        8.83520623      18.85282570       6.37309187      -0.01380396       0.06411222      -0.53542526
H        8.89221371      19.30060912       4.58406963       0.13251161       0.18164108      -0.09237797
H        8.67673946      17.61350401       5.08328309      -0.05049834       0.27814571       0.07689160
C        4.99658352      18.85116822      16.52488716      -0.99081788      -0.27443184       0.05040216
C        4.99984232      18.57191877      -0.67921630      -0.93563078       0.10203803       0.72419293
O        3.90678712      18.16580434      -0.14477905       1.45392885       0.26454331      -0.28485741
O        6.13100858      18.83836874       0.07536606      -1.45736432      -0.65703022      -0.27780838
H        6.74837286      19.36762937      -0.53680776       0.56617648       0.12913007      -0.06470670
H        5.92280423      19.24601148      16.11875255      -0.01394098      -0.17778263      -0.00668349
H        4.17318462      19.62655686      16.34051552       0.54755751      -0.51730240       0.11944178
H        4.61537540      17.87880888      16.04897161       0.36751087       0.75206604       0.14830466
C       17.36171463      13.43315140       2.62002091      -0.13732640       0.74535331      -0.70327348
C       17.26822163      14.18398727       3.90133320       0.42814826      -0.50230692       0.66285918
O       17.65877918      13.63252376       4.96276298      -0.32379662       0.62729956      -0.44944082
O       16.85761844      15.44799487       3.75648909      -0.01631134      -0.13952531       0.13831498
H       16.67097924      15.89841582       4.67448706       0.06110935      -0.11988797       0.17560631
H       17.00791883      14.14458210       1.81142505       0.25030259      -0.52834102       0.24264564
H       16.70174584      12.54773089       2.61243770       0.32735589       0.05271407       0.01909894
H       18.45042968      13.23153292       2.49170067      -0.43815889      -0.17050752      -0.14981776
C       13.31338054       6.98044509       6.00621379      -0.32645521       0.10671726       0.24949947
C       11.89245999      25.07089863       6.01463836       0.37148613      -0.25047854       0.66340757
O       11.30545249      24.58270750       6.99062080       0.21204452       0.20395383      -0.15764330
O       11.33064316      25.05625388       4.80786477       0.21992639       0.53673577      -0.43409440
H       11.85436503      25.75768656       4.23546264      -0.36757500      -0.51562178       0.01118437
H       13.89729851       6.97680228       6.95382609      -0.33536414      -0.13540098      -0.20182072
H       13.10972512       8.02680250       5.73042934       0.20760363      -0.00803468      -0.01832153
H       13.88650160       6.50848764       5.20531807       0.08571572       0.05731356       0.01345128
C       15.18434968      16.83456143       1.31680565      -0.80240754       0.26255994       0.16679901
C       14.74658325      18.29906944       1.24741286      -0.21003763       0.11568738      -0.10766043
O       13.91986882      18.70192984       0.33866342       0.38268252      -0.52996922       0.16550948
O       15.24251301      19.12332082       2.08904557       0.05761029      -0.00252617      -0.01494948
H       16.41730660      18.87931532       2.84988042       0.21397427       0.31627195       0.31966084
H       15.61627077      16.60726506       2.30318528      -0.10792771      -0.06193441      -0.19589176
H       15.91614514      16.76281426       0.53910103       0.43313445      -0.20958910      -0.32059359
H       14.34668190      16.14636368       1.04972259       0.24706369       0.21678220       0.11946803
C       19.71259101      11.04427188       3.29907757      -0.13735419      -0.02545230       0.62148111
C       20.65743427      11.80452268       2.44058708       0.93166448      -0.05370771       0.17578002
O       20.48627614      11.96231491       1.24409208       0.01287388       0.25283020      -0.15492139
O        3.17968417      12.23859295       3.02226116      -0.83158178      -0.18028976      -0.33897717
H        3.20454177      12.08773087       4.02271263      -0.02506553      -0.17881652      -0.06948248
H       19.47811450      11.61012000       4.21037755      -0.05745891       0.12373816       0.00930726
H       20.15841181      10.12743701       3.70404591       0.12149448      -0.04164865      -0.10331618
H       18.76445333      10.78594828       2.82102387       0.10232702       0.06883309      -0.15422724
C        9.08895561      13.20977406       7.57017531      -1.06196378      -0.59317548       0.68815067
C        7.78430323      13.64824030       6.88067148       0.14454682      -0.22275730      -0.41624160
O        6.67815605      13.08983550       7.02813431       0.56011975       0.44034516       0.05702622
O        7.93920280      14.64144528       5.99180185      -0.40434548       0.18795239      -0.01490215
H        8.85962233      15.11379144       5.94845355      -0.11194003      -0.44405113       0.16403762
H        9.59659836      14.14491625       7.88738684      -0.05141790      -0.43302273       0.20893726
H        9.73587353      12.59749823       6.92113624      -0.08583709       0.21614761      -0.12103121
H        8.67418871      12.47392672       8.38013101       0.69766271       0.84021741      -0.40070221
C        3.51574835      21.17367727      13.41229211      -0.79428555       0.28590747       0.35367289
C        2.99864537      21.40777290      11.99892415       0.30401237      -0.85622154       0.17486360
O        3.63582415      21.27333632      10.94080937      -0.06447113       0.22946649       0.49148976
O        1.67703632      21.61367610      12.01217424      -0.29400012       0.18304945      -0.75454272
H        1.43263049      21.72363599      11.03114962      -0.09883686       0.11723297       0.54971403
H        4.57038150      21.13159395      13.48868362       0.68977233      -0.31419309      -0.10213703
H        2.98217495      20.37842117      14.01697666       0.39526549       0.02083809      -0.62697467
H        3.25581739      22.02234366      14.04777433      -0.10965694       0.38126903      -0.04313109
C        8.36165612      23.78649418       4.22581188       0.80219433       1.86156759      -0.27257909
C        7.84949962      24.93312359       5.07309405      -0.31591754       0.28003523       0.38708902
O        7.76965961      26.11504678       4.72005143      -0.01550967      -0.68864635       0.11702785
O        7.41151208      24.59802840       6.38001575       0.58839784      -0.14121819      -0.59463470
H        7.69295952      23.64987309       6.56987289      -0.22164832       0.13710719      -0.01824347
H        8.64457994      24.22951731       3.24335431      -0.12655165      -0.27143620       0.23066872
H        7.71379447      23.00297725       4.15004012      -1.16125463      -1.09074030      -0.14348798
H        9.24619840      23.42933195       4.69651652       0.61651708      -0.19475953       0.26254121
C       11.83721856      10.65196244       7.53180385      -1.24355513      -0.35497698      -0.19907269
C       11.40615331      10.44174060       6.05413550      -0.00892137       0.39804301      -0.02473851
O       11.25304810      11.48846312       5.34141364       0.05520733       0.26835946       0.13150002
O       11.15884906       9.26564550       5.62348919      -0.02705912      -0.22847623       0.24464415
H       10.78639863       9.07225068       4.09021568       0.25115759       0.32043230      -0.17711260
H       11.94309901      11.67988605       7.85004767       0.34442417       0.20061328      -0.19346016
H       12.57780057       9.97167454       7.88671013       0.57747117      -0.15996366       0.04343448
H       10.93539149      10.35001959       8.10877567       0.05971075      -0.00568718      -0.06637642
C        8.96215152      25.61054450      17.87205159       0.56696111      -0.32855910      -0.66859827
C        7.86765683      25.03550151      18.63265072      -0.47311271      -0.04134466       0.88473670
O        8.02838252      24.25063692       0.86150420       0.00158128      -0.30877241       0.11584692
O        6.63843706      25.54939090      18.40000558       0.05951612       0.06536528      -1.04063038
H        6.63749855      26.07678753      17.46442959       0.01529809      -0.08342081       0.92069684
H        8.75624904      25.34608890      16.82530715       0.21489949      -0.03009067      -0.06449735
H        9.98603150      25.24904667      18.16636593      -0.56668255       0.28185557      -0.05214858
H        8.77483682      26.66728952      17.89546707       0.33408554       0.47733336       0.10562670
C       10.37251679      15.39625309      15.07547158      -0.66957386      -0.42612843       0.19716693
C       11.81206334      15.45100500      15.55813201       0.10222505       0.24441328       0.29552413
O       12.12700212      15.48192352      16.77635411      -0.11033018      -0.19042876      -0.71290022
O       12.71498742      15.51643786      14.57902432      -0.21014012       0.14166748      -0.11892231
H       12.33676435      15.55136341      13.44796695       0.22873306      -0.55580510       0.58072146
H        9.62362745      15.29784567      15.94298946       0.62939763       0.16059784      -0.62673072
H       10.25670209      14.46056927      14.44217878       0.08972733       0.60317829       0.18471223
H       10.13394101      16.30576367      14.45858946       0.04412040      -0.39850120       0.22553298
C        8.85950677      20.60209411       2.09300995       0.37262326       0.16944385       0.22764295
C       10.09092057      20.97675512       1.31515567       0.54662980       0.14993697       0.30956202
O       11.13063615      21.45968459       1.82679380      -0.52721096      -0.23447467       0.16185104
O       10.06919906      20.80361977       0.00840163      -0.43442468      -0.21344763      -0.70877316
H        9.15165918      20.39636279      -0.50650198       0.12250917       0.22014856       0.39986551
H        8.85566779      21.15618282       3.06132167      -0.10985480      -0.22490228      -0.35581996
H        8.79207501      19.51173468       2.25395488      -0.03599538       0.15707834      -0.05085202
H        8.08366393      20.92408881       1.41974745      -0.56553157       0.01559339       0.06784512
C       11.23426820      13.91121006       2.75459346      -0.32066253      -1.17633547       0.41995324
C        9.78701028      13.62825607       3.11256720      -0.17660981       1.02462298      -0.09853980
O        8.90140332      14.45774729       2.87403558      -0.03631376      -0.23857989      -0.16867803
O        9.49693599      12.50760100       3.75316069       0.19087176      -0.49331105       0.31737123
H       10.30276499      12.04351575       4.23297782      -0.23568471       0.04282596      -0.11562512
H       11.36741126      14.09700075       1.71164991      -0.01936441       0.04164219      -0.53280526
H       11.71574101      12.97577315       3.06517479       0.45325164       0.16345387      -0.15549269
H       11.61044673      14.73516540       3.31044315       0.18158237       0.43871834       0.40078208
C       10.16271698      10.97944821      13.48731727      -0.20484384      -0.02347417       0.13812600
C        9.29810337      10.97222974      12.24799094       0.73821708      -0.12265576       0.39414347
O        8.51471777      10.06180956      12.04337800      -0.66397971      -0.70189196      -0.26819021
O        9.45270363      11.93385949      11.38305132       0.14506677       0.74007490      -0.54032905
H       10.21168268      12.68414645      11.65634014      -0.10607365      -0.45592333       0.14634359
H       11.14585168      10.53436884      13.38264878       0.12116332      -0.16569349      -0.24327240
H        9.67812714      10.49358710      14.32280373      -0.19635451      -0.27528112       0.03167333
H       10.31866881      11.98047776      13.80194518       0.21989566       0.63029266       0.16214544
C       10.76794206      18.10491859       8.81231043      -0.33931193      -0.07898424      -1.36030080
N        9.72082683      17.32207550       9.39789425       0.09401016      -0.80008278       0.35608827
C        9.67219385      16.72677789      10.68787363      -0.04590868       0.31224420      -0.69307070
C        8.41397660      16.17170324      10.65602806      -0.48235643      -0.12301756       1.20592277
N        7.69480042      16.38676178       9.52339116       0.11684967      -0.27358651      -0.52250268
C        8.56045465      16.98820148       8.72290592       0.53120423       0.57656609       0.52897522
H       10.72020907      19.11069953       9.16670185       0.17084217       0.47136380       0.22775283
H       10.51660445      18.13759660       7.69947817       0.20983759       0.10800319       0.61620016
H       11.74755112      17.65674000       8.84553896       0.28688785      -0.07960525       0.30902429
H       10.50655103      16.70496878      11.41706348      -0.38529952       0.11281161      -0.35626993
H        7.84469282      15.82593899      11.50904290       0.16702928      -0.26257188       0.15437105
H        8.46692100      17.36836145       7.73211648      -0.33681960      -0.02472762      -0.28876389
C       13.14013417      23.15631036      14.22982676      -0.29741331      -0.30737385       0.76235363
N       12.39093896      24.37187988      14.47877317      -0.54487854       0.55448317      -0.31644661
C       10.96660521      24.36193276      14.47109834       0.50334915      -0.41578965      -0.05711216
C       10.61714798      25.69527469      14.57829027      -0.54613048      -0.15489535       0.19889898
N       11.72026814      26.49047094      14.54441004       0.03319667       0.70714635       0.23354885
C       12.78630576      25.73194385      14.47180469       0.06022325      -0.89969635      -0.00307838
H       13.72330934      22.82287031      15.11117022      -0.27551913       0.02203734       0.02747768
H       13.87546621      23.35125603      13.51665295       0.58841024       0.08965345      -0.94452221
H       12.41189669      22.37653595      13.92335194       0.35638945       0.13999434       0.01140064
H       10.43320617      23.38608847      14.23686746       0.31630318       0.78037275       0.35761261
H        9.64741839      26.12261735      14.86546478       0.17247873      -0.14909889      -0.38597040
H       13.81350944      26.12799463      14.39465496      -0.25655815      -0.35614042       0.13796012
C       -0.06655404      13.99430156       9.49695004       0.39220121      -0.07670651      -0.68387825
N       17.46396848      14.38602820      10.24840919      -0.47030778       0.27626250       0.73070744
C       16.31509008      15.05850298       9.82089889       0.58417417      -0.34791779       0.13729348
C       15.43724546      14.98450427      10.86445170      -0.72311556       0.66812419       0.24037193
N       15.97006099      14.34510337      11.97898278       0.57158189       0.18058110      -0.46503353
C       17.22667842      14.03870183      11.57905689      -0.70109488       0.06794184      -0.21849392
H        0.84530838      14.41147528      10.00048704      -0.28718724      -0.02656103      -0.39899698
H       -0.16740364      14.29561919       8.34905564       0.15799570      -0.38539583       1.34605995
H        0.01489475      12.88724992       9.62986150       0.03483371       0.31190057      -0.33421109
H       16.33523610      15.61677641       8.90657810      -0.09920769      -0.02626962      -0.26567612
H       14.46732809      15.54793487      10.89238429       0.51402304      -0.46592965       0.12183287
H       17.94428895      13.59017130      12.24572560       0.17247645      -0.17231915      -0.11194438
C       14.21399153      11.14092561       4.17301145       0.53672106      -0.58731304       1.24249661
N       15.34985112      10.14605078       4.18133811       0.07470269       0.02436701       0.07265611
C       16.12445067       9.71133152       3.12783352       0.09493065       0.23476775      -0.97822285
C       16.99901632      27.43144844       3.54655123      -0.50035099       0.34850644       0.76372312
N       16.76562160      27.26554415       4.91200879       0.26365686      -0.22805762       0.35330507
C       15.81993063      28.12080813       5.26736118      -0.38224845       0.22770024      -0.34823591
H       13.31581507      10.68748423       4.59267896       0.00492865      -0.20896998      -0.13770594
H       14.00102196      11.46709375       3.20292329      -0.02680354       0.27081252      -0.83701947
H       14.40557587      11.96848675       4.88088729       0.20677967      -0.02754378      -0.26739791
H       16.08355827      10.18524761       2.14713045      -0.20086490       0.00933238       0.06937057
H       17.79829250      26.88581164       3.05005717      -0.14948975       0.10615728      -0.04245733
H       15.39979629      28.35726730       6.23913755       0.08844221      -0.28184890       0.03817106
C        1.81682047      20.77604752       8.05882222      -0.36998470       0.22432214       0.96721381
N        1.16648689      19.73093391       8.90249344      -0.03536328      -0.40833711       0.34572374
C        1.91434276      18.70860526       9.55962863      -1.37834343       0.53486554      -0.21501857
C        0.94507203      17.95748224      10.19018811       0.29493612      -0.78907802       0.86870902
N       -0.33583226      18.39005854      10.01273404      -0.05407585       1.43546699      -0.72885657
C       -0.18341882      19.53440209       9.23458319       0.50064372      -0.50385381       0.03515883
H        1.04648443      21.46367365       7.64685069       0.16445819       0.19081144       0.71786431
H        2.09048215      20.37143248       7.12460691       0.71805171      -0.59951934      -0.42090174
H        2.66785454      21.18255039       8.72659187      -0.69783169      -0.02907031      -0.85360174
H        2.96606937      18.60893039       9.51944051       0.39129608       0.06506361      -0.11239737
H        1.09706498      17.14105416      10.95110541       0.04789594       0.39092950      -0.59928746
H       -0.94262063      20.25137323       8.86057463       0.18651243      -0.38410795       0.19245603
C        6.32797632      12.44113873      10.73842151       0.46900035       0.39069672      -1.64097303
N        5.08706994      13.07375541      11.11145827       0.16705127       0.35737382      -0.25220496
C        4.76885560      14.34986943      10.64226245       0.43672944      -0.66635836       0.31285884
C        3.51154145      14.59318205      11.04760517      -0.85551288      -0.46641059       0.48328077
N        2.95523997      13.46004820      11.74475212       1.04390283       0.43476297      -0.10379781
C        4.02250002      12.61100971      11.79088948      -0.77693545       0.39915767      -0.07733188
H        7.08723149      13.26416224      10.60688375      -0.18744925      -0.49960488       0.29209161
H        6.31557611      11.98230643       9.66610455      -0.24662052       0.38373167       0.78414247
H        6.64334029      11.64428323      11.35536547       0.20611291      -0.37287633       0.64458398
H        5.58572639      14.91479708      10.27315935       0.20512889       0.36673552      -0.37579260
H        3.00819045      15.53834864      10.95547044      -0.27692980       0.03203317      -0.02686368
H        4.11135196      11.75941264      12.42882689      -0.17353899      -0.44583404      -0.00273585
C       12.07811469      10.55182553      16.48187690      -0.53318262      -0.47584215      -0.09165078
N       10.69209049      10.93779902      16.87288737       0.80398215       0.58192252       0.69866563
C        9.55545945      10.20689696      -1.77193815      -0.31663942      -1.39308791      -0.99384516
C        8.51563961      11.01578125      -1.26308834       0.77190597      -0.49627047      -0.10409762
N        9.08471663      12.19234707      -0.87840490       0.86304698       0.24168225      -0.02192668
C       10.43395108      12.11209657      -1.18239681      -2.15328512      -0.27032464      -0.01564056
H       12.08384525       9.96200517      15.52006027      -0.05565149       0.19006275       0.56741936
H       12.61227829      10.04243144      17.30515107      -0.18118844      -0.07873161      -0.22478141
H       12.53932200      11.49776795      16.37675513       0.50609976       0.56504733      -0.26000555
H        9.74332255       9.19083394      -2.27193275      -0.63062504       0.77564995       0.48929878
H        7.46173292      10.79720472      -1.09290106       0.20329809      -0.07660146      -0.11556868
H       11.01478289      12.95234976      -1.00472268       0.87812074       0.62154344      -0.00018234
C       18.27230321      10.68874938       7.29150295       0.41343904       0.64097089      -0.96937068
N       16.93793644      11.17035478       7.69359957       1.37188534       0.10283419      -0.34145922
C       16.26340475      12.29030022       7.29122373       0.08717916       0.39056270      -0.93427008
C       14.95715981      12.08939996       7.70703284      -0.21958382       0.41938329       0.22910640
N       14.89792795      10.92174817       8.41117590      -0.35929942      -0.31848652       0.72022142
C       16.13011381      10.42505510       8.42075399      -0.84279584      -0.46722433       0.28487279
H       18.84938179      10.33910133       8.13824634       0.05822194       0.06023745       0.18627390
H       18.82895922      11.49932745       6.71387481      -0.34750174      -0.30492894       0.59091291
H       18.26007803       9.87635758       6.53469251      -0.34188097       0.04337115       0.24564551
H       16.76699635      12.94602099       6.55365176      -0.28807963      -0.04004454       0.34836227
H       14.05529313      12.74784044       7.71544107       0.54926829      -0.25782129      -0.23472031
H       16.48080985       9.54775896       8.92649523      -0.06267360      -0.27948964       0.07435104
C       19.28920889      21.62564835       4.80581064       0.36306693      -0.97568046       0.29406690
N       18.11107098      22.09166534       5.46954798      -0.35864449      -0.45040627      -0.16198784
C       17.53443628      23.33694988       5.55655269       0.03309358      -0.25284786       0.55716953
C       16.38136546      23.09172192       6.30277837      -0.30118498       0.40622047      -0.41550149
N       16.15859177      21.74765227       6.53804088       0.61371780       0.17522313      -0.32401891
C       17.25899687      21.18052774       5.98827485      -0.92543861       0.61768287       0.67843735
H       19.09207125      20.47269068       4.65150236       0.37410693       1.18086196      -0.17316387
H       20.14811341      21.68221245       5.52415078      -0.14414516       0.14789539      -0.51332538
H       19.42234425      22.22990211       3.90309897       0.17715313      -0.22191426      -0.01595369
H       18.08579693      24.20540127       5.21875930      -0.17376585       0.04738844       0.02022138
H       15.62153175      23.83660499       6.49076613      -0.03817061       0.04341271       0.20115825
H       17.39227358      20.13956886       5.95575477       0.26070323      -0.63765147      -0.09470908
C       17.54814488      17.79842759      13.34668751       0.32049106      -0.22069673      -0.90949339
N       18.92482820      17.62974432      13.71174393       0.75880992       0.99313728       0.77697510
C       19.74662918      16.55137812      13.56428396      -0.18389111      -0.16468040      -0.21777330
C       21.00735787      16.90233528      14.02613722      -0.35217584      -0.61163020      -0.29709341
N        2.25010734      18.20954075      14.43112340       1.55922803      -0.44521153       0.48286152
C       19.73874254      18.62234169      14.31764462      -0.96348543       0.58970777      -1.02887069
H       17.08435085      18.53040891      13.93703096      -0.19815617       0.74918666       0.46389808
H       17.03423746      16.89103686      13.59919242      -0.29103963      -0.42373292      -0.28748492
H       17.53318999      18.11727206      12.27191148      -0.27722213      -0.31171258       0.28537021
H       19.35267908      15.70326794      13.02412476       0.07590476      -0.22048722       0.13746675
H        3.13891789      16.17811583      14.03072352      -0.03641981       0.51221217       0.13862629
H        0.91853572      19.72404253      14.17206272      -0.50032250      -0.54219978       0.31137410
C       12.41790112      26.65275856      11.18438164      -0.82990157       0.22215206       0.09103108
N       13.48410239      25.85123862      10.66711103       0.76975575      -0.73732243       0.29429389
C       13.43408406      24.84522616       9.69562723       0.10696546       0.10117737      -0.21613583
C       14.58796598      24.10041200       9.81900991       0.35168674       0.23384479      -0.19094027
N       15.33980488      24.58656551      10.87281452       0.18218034      -0.30000138       0.03577659
C       14.64899072      25.56884733      11.38525198      -0.13178034       0.62457555       0.36762435
H       12.04485561      27.40727054      10.46878313       0.13298141      -0.09785680      -0.02449962
H       12.70191278      27.17377853      12.11124620       0.09595618      -0.11164102      -0.14761981
H       11.55648540      26.00548679      11.45126334       0.13658870       0.13305602      -0.00712520
H       12.68730957      24.79531044       8.92072197      -0.18972941       0.07323215      -0.04318263
H       15.08573064      23.37320066       9.16433521      -0.42074695       0.00290344       0.08120040
H       14.96079368       7.40636808      12.29914126      -0.19504661      -0.02402054      -0.36815973
C        3.12769302      24.88823328      12.14208134       0.56782544      -0.19219145       0.80648265
N        3.95897316      25.34716824      11.00275824       0.33166818      -0.38575044       0.52225079
C        4.65525040      24.36765293      10.28340884       0.00658200       0.29514872      -0.43262687
C        5.46152649       6.36503620       9.36303976      -0.12859677      -0.71564579       0.91489058
N        5.39390711       7.69336214       9.69232842       0.08959642       0.48940186      -0.69089294
C        4.47642674       7.86568530      10.62987185       0.09924064      -0.23596464       0.01336245
H        2.37239490      24.26884667      11.72164633      -0.41951193      -0.42633947      -0.19686314
H        2.58496355      25.63033367      12.77020570       0.42799142      -0.00632222      -0.43386927
H        3.76575855      24.22698035      12.86816337      -0.49887685       0.65172471      -0.67920167
H        4.51462194      23.30141769      10.51922883      -0.03480442       0.33299806      -0.21158927
H        6.13712081       5.91344933       8.61837001      -0.18189917       0.32401904       0.20494279
H        4.22199744      27.55543055      10.99327075      -0.13614140      -0.19721822       0.20101795
C       15.16687035      13.46628505      -2.83443633       0.79602923      -0.68337934      -0.73515602
N       15.08816321      12.96808285      -1.46080430      -0.56191411       0.34775761       0.25834352
C       14.19927323      13.42635791      18.22741218       0.56453207      -1.05402331       0.73888226
C       14.47660993      12.57800514      19.36259128      -0.55687074       0.91336856      -0.89236984
N       15.44686201      11.67402892       0.35282979       0.41211852      -0.05853027      -0.47023310
C       15.82007725      11.94963165      -0.92302581      -0.22292572      -0.15275292       0.20121194
H       14.77445961      12.76848758      -3.61652180      -0.09365624       0.04827910       0.44335842
H       16.24348492      13.55149617      -3.16121135      -0.41820381       0.12056434       0.29649594
H       14.65967979      14.39480657      -2.98686111      -0.21982738       0.38456132       0.13144424
H       13.45171186      14.17794029      18.05207031      -0.04037672       0.19896806      -0.12532092
H       13.97298926      12.64854613      20.34163942       0.21328071      -0.05317033      -0.32009201
H       16.51888061      11.42239370      -1.57261297       0.00636038      -0.05831180       0.28643006