640
Lattice="19.152215 0.0 0.0 0.0 19.152215 0.0 0.0 0.0 19.152215" Properties=species:S:1:pos:R:3:forces:R:3 energy=-80139.69441666441 pbc="T T T"
C        5.37666042       6.82255120       9.42220656       1.00388992      -0.71954623      -0.67480979
C        5.53431316       6.00818659       8.08334334      -0.37853514       1.15083515       1.00508227
O        6.48492169       6.21114361       7.33092085       0.40301193      -0.25707266      -0.23546979
O        4.45041623       5.41226113       7.68638340      -0.76563326      -0.89459544      -0.46665930
H        3.66677604       5.21203176       8.38111758       0.39735582      -0.01657787       0.35262044
H        6.32437917       7.39871849       9.40853063      -0.40435167       0.15081515       0.30757477
H        5.27772442       6.21572031      10.32465836       0.05670674      -0.10230470      -0.02348085
H        4.46371820       7.36810069       9.29233985      -0.19708000       0.41168855       0.06700824
C       11.77889259       8.93047341       2.14495906       0.35357881       0.41408409       0.55381270
C       10.82088253      10.04161814       1.78839032      -0.43388678      -0.29393491      -0.32057751
O        9.68425661       9.64091966       1.31781962      -0.14334939       0.10463088      -0.12881537
O       11.06776807      11.26754089       1.95246686      -0.13193814       0.04602952      -0.10010188
H       12.33597742      11.73831341       2.44068622      -0.46578623      -0.13642203      -0.25168155
H       11.34263281       8.53737156       3.07773855       0.07743527      -0.31755800      -0.10833882
H       12.77385665       9.30589053       2.44115558      -0.08885095       0.00128638      -0.08763686
H       11.90791162       8.18528014       1.36302571      -0.17897134      -0.14947593       0.02519748
C        0.82981823       3.39612453      -4.32159525       0.03022311       0.23007680       0.00355725
C        0.24950968       3.71913484      -2.96223520      -0.69868791      -1.87174173      -0.21088844
O       -0.32779123       2.73698158      -2.33617178       0.52640022       1.39943632      -0.17039083
O        0.38754733       4.91700452      -2.52056391      -0.23275264       0.62286298       0.18128342
H        0.67279678       5.65343612      -3.29468953       0.26266015       0.07009024       0.32633440
H        0.20150937       2.57345649      -4.78995355       0.65069327       0.41872587       0.20673457
H        1.90990923       3.16175284      -4.05499616      -0.53866017      -0.13715682      -0.43412137
H        0.80884763       4.33675608      -4.93855825       0.05206010      -0.51317673       0.12708932
C        3.15086082      15.84030800      -0.97697241      -1.39016761       1.25054655       0.13815256
C        3.39496698      16.50813703      -2.33890030      -0.83603212      -0.29204545       0.30102488
O        4.48203588      16.41868156      -2.87277278       0.28651875       0.19025531      -0.33598215
O        2.29831683      17.14033775      -2.90798013       0.59794175      -0.39998177       0.62867543
H        1.56537439      17.10241432      -2.20316042      -0.09527935      -0.01423011      -0.53962177
H        4.04965143      15.86061691      -0.40599432       0.37416990       0.02849654       0.34851871
H        2.75929843      -4.31235007      -1.02472083      -0.03096271      -0.42860071      -0.25558135
H        2.27740705      -2.73517471      -0.44947764       0.87143687      -0.45691137      -0.27189847
C        5.34192452      15.12049584       7.13296439      -0.56442280      -0.10386971       0.16903990
C        5.42037230      14.04998577       6.04030365       0.98081589       0.00753077       1.02356861
O        6.23257261      13.10042991       6.17316283      -0.66108102       0.38234078      -0.28718737
O        4.75599849      14.34037940       4.93763327       0.29083539      -0.46282865      -0.62974556
H        5.16206115      13.68662011       4.21607533      -0.63462387       0.21318960       0.08626112
H        5.95829841      15.96589575       6.75390564      -0.10524241      -0.14032419       0.22400961
H        5.73235753      14.70245960       8.09701956      -0.05492874       0.22653038      -0.42614075
H        4.28769891      15.49746823       7.31410166       0.55050081      -0.16671204      -0.15390881
C        1.08757391       2.96636447       2.33750260      -0.40534128       0.38477729      -0.61793284
C        2.27376750       2.29128262       2.90703202      -0.61471989      -0.40653836      -0.33001071
O        2.31497313       1.04869496       2.88168554       0.55035239       0.40585141       0.30725949
O        3.19245297       3.08529655       3.43179929       1.05499838      -1.04084049       0.41804770
H        3.05548575       4.06599827       3.43922748      -0.55435413       0.70530881      -0.29761526
H        1.14065398       3.16842285       1.22519060       0.08308794      -0.24852633       0.50305209
H        0.96400188       3.93924428       2.79338455      -0.13120820       0.25134992       0.09663660
H        0.22942349       2.33401155       2.55777080      -0.14664295      -0.02157398      -0.07057551
C        3.02414487       1.04711043      -0.12110516      -0.40464920      -0.35079525      -1.26798265
C        3.82148636       0.82210920      -1.44687781       0.31978571      -0.03788034       1.30975791
O        3.31340696       0.78974044      -2.53826384      -0.21082472       0.14304120      -0.54760950
O        5.18410123       0.69709403      -1.30443070      -0.21706013       0.03289914      -0.42886939
H        5.48972320       0.47297576      -0.37985377      -0.02548723      -0.02402480       0.18138794
H        1.96154359       1.15789564      -0.45586500       0.35332160       0.05999892       0.30338517
H        3.40155157       1.87971862       0.41728967       0.14316121       0.65921581       0.17120823
H        3.11218409       0.25697862       0.60135312       0.04252177      -0.49613165       0.10401356
C       -6.20655123      15.83132977      -0.30300881       0.68466654      -0.89009282      -0.26522977
C       -5.68677581      17.18633737      -0.02126408      -0.40743997       0.47123846       1.40068897
O       -5.92553317      17.80624358       1.03923869      -0.07561576      -0.30005951      -0.34878800
O       14.21263474      17.76407930      -0.91497394       0.71630279       0.02327498      -1.13605856
H       -4.74724123      17.18657590      -1.75797519      -0.13678399       0.11993645       0.20025823
H       -7.05372978      15.48068345       0.25232802      -0.26936410       0.09837945       0.42934518
H       -5.37964700      15.06017992      -0.16751831      -0.37730456       0.43655773      -0.02897468
H       -6.45784853      15.76735304      -1.34557387      -0.07319937      -0.12118603      -0.42568813
C       -4.49864017      -1.56164048      -4.97906691      -0.30688109      -0.49189124      -0.95551683
C       -4.60956720      -2.92231929      -4.32972270      -0.37597963       0.25363031      -0.36320891
O       -4.78854995      -3.89898875      -5.12323812      -0.01450080      -0.32539233      -0.16143696
O       -4.61477953      16.11372398      -3.08313266       0.16211039       0.00858958       1.05637513
H       -5.61529390      13.97890930      -4.53698454       0.25335844       0.35625144      -0.26732225
H       -4.19370520      -0.77950999      -4.34264088       0.54677690       0.50720125       0.44279630
H       -5.48947229      -1.21912127      -5.32944820      -0.01624472      -0.24159853       0.01366585
H       -3.93704451      -1.72609416      -5.92794265       0.02696178       0.32744988       0.33324891
C       -9.36136017       4.84533755       7.25803451       1.27713267      -0.27143658      -0.20011501
C       10.32343635       6.18346520       6.85516812      -0.35093487       0.90333521       0.26470037
O       10.59810653       6.55419139       5.71110208       0.06568707      -0.36333905      -0.27147471
O       -8.71205092       7.06170211       7.89332573       0.48684812      -0.21383406      -0.04670984
H       11.24427766       7.74893132       7.67446166      -0.29283419      -0.06625304       0.02542885
H       -8.42947918       4.29958085       7.59654972      -0.41732330       0.11304139      -0.04485645
H       -9.74004084       4.28088608       6.42680414      -0.19629780      -0.12728960      -0.29043102
H      -10.02530413       4.86781978       8.07753538      -0.52071990       0.11827291       0.53961204
C        8.70927438      15.73500332      10.39451873      -0.46987097      -0.61032891       0.75184144
C        9.10842855      15.28057140       9.05373532       0.05133826       0.41477370      -0.28992258
O        9.87613217      14.33809001       8.88737286       0.00743076      -0.12419021      -0.20972409
O        8.60807665      15.96787744       7.99325734       0.54369786      -0.96319324      -0.44359637
H        8.10915401      -2.39385373       8.19995697      -0.35952789       0.84576821       0.33446616
H        9.60382547      15.65167176      11.03184121      -0.12968487       0.14122209       0.04859859
H        8.02894215      14.88003274      10.75791746       0.30603840       0.68395218      -0.15335467
H        8.22147323      16.71905558      10.50427482       0.09986452      -0.15836449      -0.10994703
C       -0.88827189       6.58391282      11.53262241       0.21049481      -0.90821744      -0.62687252
C       -1.54742761       5.58278157      12.46104103      -0.34963373      -1.01283645       0.63070668
O       -1.39400605       4.32945819      -6.69073951       0.10356569       1.26510729      -0.33238634
O       -2.39556078       6.06803417      -5.73820593       0.37002229      -1.42665841      -0.26280866
H       -2.46355229       7.01597665      13.35905867      -0.19057157       1.55044143      -0.01078686
H       -1.60902895       7.11896936      10.90580370      -0.18704286      -0.16329236      -0.07258592
H       -0.19259619       5.97331207      10.86263299      -0.31677131       0.57458136       0.45121931
H       -0.40754403       7.38586168      12.06044522       0.37891294       0.15644226       0.33172538
C        3.60638177       8.83867673       7.27338145      -1.23144612      -0.00524985      -0.50363085
C        2.97185915      10.08956779       6.50699139      -0.03686804      -0.58239444      -0.03076000
O        3.19945955      11.27052732       6.73493248       0.12415661      -0.17591196       0.20880468
O        2.06531526       9.77921742       5.53586172       0.18341888       0.64959549       0.51903345
H        2.16743908       8.84838535       5.24669949      -0.11215953      -0.70211303      -0.24004324
H        3.98448442       8.03774304       6.60237271      -0.02343155       0.32712069       0.02181532
H        2.79497675       8.30419662       7.88339994       0.43899143       0.46241381      -0.34813097
H        4.35409738       9.20554269       7.92542081       0.50640019       0.19555873       0.43385403
C       -7.00784243       0.99157556      12.75955450       0.12387157       0.47366599      -0.56684546
C       -8.06830611       0.12161384      12.09458818      -0.29955505       1.32948949      -0.46434982
O       -8.61276076      18.29865120      12.52895578      -0.24097497      -1.08498556       0.57433170
O       -8.52782607       0.73201122      10.93114103       1.13838395       0.41916248       0.52442234
H        9.76116594       0.40484397      10.62585973      -0.60805102      -0.51682315      -0.21767859
H       -7.42314731      21.20182413      12.76665618       0.28450813      -0.52982361      -0.02803844
H       -6.14897392       0.98466478      12.01695072      -0.23928036       0.10066713       0.53751783
H       -6.70679901       0.73615315      13.79692935      -0.08505618      -0.14891334      -0.37390033
C        3.37736641       7.69535775      -6.99728340      -0.81709210       0.36751683       0.57486389
C        4.31366854       6.92183353      -6.16000509       0.08925274      -0.34833305       0.11278389
O        5.46385892       6.80513680      12.67567953       1.57948377       0.06879195      -0.27392761
O        3.91036211       6.17657587      -5.09456786      -1.52592599       0.40581168      -0.01975926
H        2.88511198       6.35133464      -4.97914178       0.77026967      -0.10135613       0.30456319
H        2.61892696       8.13499537      -6.31325511       0.10755785       0.06720379      -0.29924258
H        2.84681512       6.90052954      11.63609916      -0.16767144       0.00897155      -0.45132227
H        3.84026055       8.48067611      -7.63615234      -0.06939848      -0.37708266       0.22465443
C       -4.25855423      15.47656234       2.88911465       0.38217383      -2.32939018       0.24830979
C       -3.18774577      16.13810547       3.60493437       0.76097779      -0.47342430       0.18360602
O       -2.90794874      17.30496778       3.52798778      -0.01067453       1.35872394      -0.04961113
O       -2.39933433      15.29214745       4.26298107       0.29173304      -0.86122353       0.30711435
H       -1.61418874      15.70883109       4.70643368      -0.13713304       0.14920311       0.07714334
H       -3.86827758      15.10872499       1.93098944       0.03082182       0.09594480      -0.04967224
H       -4.99392819      16.13477800       2.74839868      -1.69326048       1.46907839      -0.51889255
H       -4.70170332      14.54245179       3.37456337       0.43087018       0.60766235      -0.15995352
C       -1.60733586       6.37866845       4.33758301       0.28308688      -0.50746557       0.56964513
N       -1.81826022       7.08875656       3.08719735       0.08031083       0.27337254      -0.49574962
C       -0.78844860       7.70871130       2.38463796       0.54508300       0.10033863       0.37436849
C       -1.36592851       8.40004339       1.34282683       0.07976410      -0.21548243       0.08517602
N       -2.70639038       8.21594249       1.31746359      -0.67583213      -0.45088575       0.82635271
C       -2.96467044       7.46742196       2.41723635      -0.20263452      -0.15613885      -0.46671505
H       -1.45767457       7.07147112       5.16743656      -0.07284993       0.19276535       0.03212764
H       -0.69271903       5.72008960       4.38456127      -0.32192181       0.36476727      -0.44629615
H       -2.42169416       5.70832680       4.64902660      -0.14985011       0.20637633      -0.27407105
H        0.21575617       7.69271277       2.82648788      -0.14508960      -0.00187181      -0.23639134
H       -1.00732605       9.01196180       0.56319411       0.63795154       0.28972661      -0.31762732
H       -3.93803505       7.05321389       2.60818986      -0.12185235      -0.06761045       0.24643555
C       -0.98228611      15.53040554      14.32397257       1.11143452       0.55643638       0.14841850
N       -0.68469116      16.52182158      13.26065040       0.47773153       0.02413212       0.35096601
C       -0.22263060      17.81764527      13.42117485      -0.31521963       0.54212302       0.55664333
C        0.14274364      18.25964339      12.17311000      -0.07246084       0.70542712       0.18224371
N        0.00040063      17.25288122      11.24926348       0.19984320       0.09652997      -0.24496631
C       -0.42959132      16.22045687      11.95380120      -0.44034346      -1.12844931      -0.54316076
H       -0.18488205      -3.53697820      15.12484329      -0.31770570      -0.11979677      -0.45968670
H       -0.95263109      -4.57266218      13.82378725      -0.15074025      -0.39959865       0.02697740
H       -1.88824221      15.75600484      14.83671531      -0.60200354       0.02060165       0.06631536
H       -0.27010017      18.39534846      14.36500525      -0.00871071      -0.39360250      -0.31691390
H        0.36725808      19.33711391      11.95570068      -0.01133553      -0.67283109      -0.07759544
H       -0.60688209      15.17189868      11.55358187       0.07540584       0.73177181       0.26204731
C        7.16972371       9.34711762       6.07787347      -0.45796797       0.43682198      -0.74960611
N        8.32403351      10.10271130       5.53938944       0.27485546       0.08717212      -0.43104875
C        9.68481109       9.69105630       5.59152389      -0.26532702       0.37126303       0.17394836
C       10.40979865      10.77189502       5.13967396       0.90816145       0.10959794       0.22484626
N        9.51639605      11.78572341       4.84719643       0.82501369       0.26338475      -0.46745002
C        8.27611820      11.39988503       5.01965090       0.35458634      -1.52162478       0.53024714
H        6.29026390       9.36850162       5.32998942       0.68984861       0.04496007       0.64646106
H        6.94040628       9.86875495       6.99455813      -0.38470137      -0.01267152       0.22164166
H        7.40134751       8.31795420       6.30785633       0.21780898      -0.23153666      -0.01689364
H       10.07232378       8.75252895       6.03790210      -0.37268948       0.31528388      -0.26181830
H       11.54967211      10.92254133       5.09641288      -1.12107033      -0.14639651       0.00221318
H        7.45681677      11.95916947       4.66835747      -0.64522141       0.22300392       0.07003180
C        7.64960277      11.47224371       9.13013618      -0.24764387      -0.00802148      -0.38259732
N        6.34379372      11.17080369       9.71202288      -0.34327734       0.35733468       0.59531013
C        5.06604537      11.68009146       9.36078163       0.61120110      -0.41636214       1.32965423
C        4.30856398      11.50081413      10.49575976      -1.01268808       0.26415510      -0.04442762
N        4.98149652      10.85068662      11.52810726       0.37425473       0.53920877      -0.53119360
C        6.22652477      10.77995878      11.03703863      -0.77695244      -0.35395255      -0.31334682
H        7.48904895      11.78888313       8.09251260       0.08579949       0.13210677       0.06747484
H        8.20553753      10.55485638       9.11330397       0.33419079      -0.38063388      -0.03537739
H        8.23295681      12.21223455       9.68629573      -0.15433358       0.11967446       0.02116239
H        4.75890676      12.05842104       8.44383703      -0.00568520       0.33447924      -0.87925796
H        3.26311960      11.92273325      10.60153757       0.60662120      -0.52558556      -0.00742301
H        7.00050452      10.31024878      11.58115857       0.53475674      -0.15738327       0.13327670
C        0.37097447      10.68260481       8.51153687      -0.28232507       0.65028336       0.15687369
N        0.11897624      11.24857019       9.82879730      -0.36876509       0.35854424       0.61996260
C        0.43648340      10.78736981      11.10416671       0.03494968      -0.12973208       0.44930401
C       -0.09617456      11.67782805      12.02519619      -0.65635582       0.42464756      -1.07752556
N       -0.84813513      12.71623203      11.28738222       0.72347458      -0.73960113       1.48728986
C       -0.64825595      12.40178863      10.05406743       0.15859490      -0.54318527      -0.91145079
H        1.06053406      11.29675082       7.96760577       0.46873165       0.15169830      -0.12070693
H       -0.53338091      10.73966600       7.93368771      -0.44265030      -0.14709496      -0.14206087
H        0.70086080       9.68207832       8.57114115       0.25064023      -0.66048085       0.10534877
H        0.93327543       9.82862981      11.35284819      -0.07371577       0.40258975      -0.34312131
H       -0.17088341      11.56410911      13.09242836       0.06743195       0.09324753       0.11657288
H       -1.10811340      12.89644015       9.22238122      -0.01134779       0.18884428      -0.25997828
C        5.62001498       1.02664991       4.66694609      -0.00473323       0.88206555       0.19442079
N        6.98271023       1.46109071       4.24379341      -0.29308274      -0.54117329       0.74704937
C        8.09838745       1.42102946       5.04906276       0.44105358       0.09888038      -0.22429090
C        9.12919722       1.92311450       4.25083925       0.58560275      -0.31805139      -0.08123774
N        8.63843133       2.18035561       2.96225188       1.25065593       0.53113025       0.38297816
C        7.38236912       1.94390710       3.04822086      -1.28498255      -0.32210573      -0.17575848
H        5.64292744       0.11686232       5.32760969       0.07949274       0.54123029      -0.21487767
H        5.04558865       0.82762135       3.76853263      -0.10682885      -0.11637046      -0.14720447
H        5.12352552       1.96741859       5.12010649       0.27207556      -0.89565043      -0.08656964
H        8.04486038       0.91756694       6.00244665       0.08002874       0.09655490       0.15272900
H       10.23861082       2.00811661       4.42583160      -0.72229967      -0.07507144       0.03004774
H        6.62227081       2.07736784       2.32500886      -0.21204843       0.02846426      -0.56344627
C       -2.24658163       1.93602930      10.97703858      -1.59377877       1.62950793      -0.00270354
N       -3.16804532       0.89191298      10.59137047      -0.20367526      -0.45724046       0.01506138
C       -4.31233026       1.10873575       9.82944099       0.47349390       0.98921254       0.51242139
C       -4.88967973      -0.09628972       9.68431474      -0.28510933      -0.58850313      -0.12445425
N       -4.15749876      -1.12453426      10.24172296       0.81732440       0.63864490       0.52553622
C       -3.09121742      -0.46108957      10.82336709      -0.72906383      -0.03439336      -0.76635204
H       -2.30558592       2.37724344      12.01381267      -0.05422688      -0.55918560      -0.37601007
H       -2.58186386       2.82340678      10.32763783       0.37923338      -0.50041698       0.43808295
H       -1.27873119       1.72714763      10.71434943       1.40444733      -0.40779807      -0.27399228
H       -4.56475621       2.14988726       9.60398461      -0.14798829      -0.24443949      -0.05526575
H       -5.78671608      -0.26746625       9.14228267      -0.38225930      -0.21235544      -0.18381174
H       -2.14818148      -0.86338607      11.11962869       0.10818563      -0.33263538       0.31790233
C        8.14020369       4.63984861      11.11689801       0.05879911       0.50504392      -0.21606374
N        8.69923658       4.60030807      12.44379081      -0.32097495       0.30220147       0.12243463
C        8.55740545       5.57407397      13.42560142       0.58229643      -1.14471835       1.15597798
C        9.07466563       4.93949250      14.58327697      -0.00296653      -0.01431491      -0.79244153
N        9.54534659       3.66480972      14.31279143      -0.06279260       0.29697796      -0.74526251
C        9.34200498       3.53410161      12.96847361      -0.15038778      -0.56573402       0.97065028
H        7.31931805       3.96355806      10.88927553       0.00139950      -0.27217490       0.19144975
H        8.96904231       4.52082910      10.44117356       0.13789526      -0.12195605      -0.41186706
H        7.72238459       5.62844748      10.98095103      -0.04650753       0.25523859      -0.10421472
H        8.15581200       6.55797452      13.40993366      -0.25472219       0.20648892      -0.42603047
H        9.16565172       5.33235471      15.56787484      -0.04283381       0.23995182       0.31295291
H        9.43562951       2.57341360      12.45854954       0.07868263       0.27087658      -0.09619883
C        2.86793726      14.24821980      -6.45972023      -1.61290909      -0.41062467       0.12514582
N        3.17974340      13.47583918      -5.22379196       0.28506955       0.06557717      -0.43678419
C        2.36401790      13.26771164      -4.11042585       1.37836230      -0.46953942       0.16946075
C        3.16428454      12.49291941      -3.26086626      -0.17970898      -0.04126184       0.36634976
N        4.42010874      12.17476728      -3.82882055      -0.74285444       0.47460089      -0.15189014
C        4.37941597      12.81115463      -5.02333079       0.00912076      -0.20803487      -0.47942241
H        2.66058336      15.29832268      -6.22716080       0.41100442       0.07793864      -0.01858855
H        1.82478901      13.91637839      12.32732030       0.69967854       0.02345999       0.23559156
H        3.52424861      14.05486129      -7.30748369       0.27955854       0.08618303       0.21232827
H        1.48073534      13.79470246      -3.87190593      -0.49584612       0.23012191      -0.10080900
H        2.84516231      12.19638721      -2.21729271       0.33395747       0.07337493      -0.68665036
H        5.09631754      12.70418935      -5.91320255      -0.49808576       0.10839123       0.90929025
C       -0.46110871      11.90639528       4.24436485       0.35648965      -0.40296106       0.69202156
N        0.12970954      11.80764290       2.93115519       0.39371923       0.17921098      -0.19719406
C        1.48825428      11.80592043       2.52453604      -0.84719036       0.06631527       0.19081026
C        1.45800618      11.78715923       1.15688545      -0.92334112       0.01197594      -0.19752388
N        0.08650082      11.80660121       0.69445698       1.04491236      -0.21354772       0.34053848
C       -0.62994929      11.78614089       1.81963298      -0.64162043      -0.01233749      -0.66133521
H       -0.00960900      11.06586354       4.85031358      -0.14512500       0.61449243      -0.01933745
H       -1.50091287      11.63369178       4.10843124      -0.25652305       0.10700958       0.05904382
H       -0.38609842      12.92893047       4.71838917       0.05763398      -0.56170936      -0.22536161
H        2.26078430      11.81840171       3.26763250       0.02403033       0.04564111       0.04517558
H        2.29638943      11.68145301       0.49238494       0.04162765       0.12079075      -0.15844244
H       -1.75665742      11.70109379       1.82521890       0.72850784       0.16259816       0.13638613
C       -8.15986771       0.89458907       7.60397483      -0.60595822       0.57959957       0.07251657
N       -7.46644668       0.14505834       6.61629515       1.09274041       0.53562726      -0.45325039
C       -6.32459860       0.48129074       5.82096455      -0.65376596       0.73430047       0.36809357
C       -6.04282544      -0.64674329       5.11598040      -0.90738876      -0.24811472       0.53956306
N       -6.94900039      -1.65985007       5.46216038       0.86518295      -0.36185411      -0.73540725
C       -7.72884337      -1.12558795       6.34640672      -0.41137220      -0.45533157       0.27926869
H       -7.54682501       1.12312445       8.47797111      -0.02525742      -0.12722605       0.14507571
H       -9.10013172       0.33190602       7.86304227       0.44453670       0.33735576       0.02411766
H       -8.42175374       1.86777379       7.14961767      -0.14623745      -0.08491546       0.14223324
H       -6.01109715       1.53343507       5.70225333      -0.02216508      -0.39520075       0.12958227
H       -5.33106981      -0.76848972       4.37027238       0.69301121      -0.19457565      -0.67320782
H       -8.51597533      -1.61576223       6.86887564      -0.32385082      -0.28493564       0.13996757
C       -6.26643672       5.26897381      13.89129451       0.68113254      -0.95455490       0.31549961
N       -6.24250448       5.14177768      12.47039639       0.14727147      -0.42338141      -1.00180311
C       -7.28201643       5.40841378      11.57824702       0.43022407       0.24621723       0.06363604
C       -6.79652885       5.11085375      10.31913269       0.24842695       0.01440920       0.24910864
N       -5.52469439       4.61441222      10.40494562       0.41526170      -0.38667969       0.52431769
C       -5.20070610       4.57827004      11.71990894      -0.45917083       0.51334170      -0.62003911
H       -6.76677405       4.39283498      14.34669665       0.11872767       0.05436670      -0.02947277
H       -6.80017933       6.11815949      14.23345605      -0.20979147       0.61066025       0.06003479
H       -5.18274456       5.26718860      14.16703553      -0.44077795       0.12001292       0.22084734
H       -8.12664329       5.97144009      11.92481753      -0.21055885      -0.01694661       0.02083306
H       -7.15557118       5.31731777       9.33294532      -0.38993918       0.05104306      -0.09892176
H       -4.18733925       4.33193088      12.05409232      -0.31633255       0.02832900       0.20379617
C       -2.85860178      -0.55534261       7.01965922       0.69391148      -0.99302434      -0.75437814
N       -2.14603846       0.58196226       6.38342591      -0.00710668      -0.14101408       0.20883971
C       -2.68788063       1.81783710       6.09834676       0.75391249       0.09662046      -0.43846226
C       -1.69539466       2.48888161       5.33392847      -0.81723862      -0.29004277       0.49672753
N       -0.60628274       1.70851523       5.22337286       0.63303486      -0.97064965       0.02646506
C       -0.87891361       0.53971810       5.87800560      -0.73328445       1.27891519      -0.52359808
H       -2.87214906      -0.45327740       8.11363234      -0.27179341       0.02058515      -0.20944298
H       -2.25355154      -1.54114716       6.77491972      -0.47920767       1.02150079       0.25130078
H       -3.81592681      -0.69561723       6.45133538       0.23061805       0.12890551       0.59347330
H       -3.61241457       2.07583558       6.54189233      -0.49113196       0.19911825       0.03170906
H       -1.75336500       3.41851769       4.78051044      -0.04788844       0.07909382       0.15725661
H       -0.34475774      -0.35768285       5.93373472       0.59946209      -0.54712331      -0.02985329