640
Lattice="19.152215 0.0 0.0 0.0 19.152215 0.0 0.0 0.0 19.152215" Properties=species:S:1:pos:R:3:forces:R:3 energy=-80138.12461456908 pbc="T T T"
C       19.43831015      -0.25471642      22.98001235      -0.37415910      -0.89685456       0.22374500
C       18.23458173       0.20880691      22.16174145       0.58598192      -1.68981433       0.13792069
O       18.31599373       1.02592412      21.26484468      -0.16412165       0.66648067      -0.15026311
O       17.23166131      -0.70926735      22.32197242       0.14118723       0.58591966      -0.04475991
H       16.46803840      -0.42836690      21.65070796      -0.12770326       0.21643236       0.10853168
H       19.25985054      -1.13165627      23.65980078      -0.19562631       0.65018665       0.01851434
H       20.07238660       0.48475909      23.36672219       0.19631062       0.90907323       0.75163756
H       20.20691898      -0.71495053      22.39060792       0.13714600      -0.29332710      -0.91704581
C        7.25877007      17.11872288      21.27887379       0.96319871      -0.21606660      -0.04107722
C        8.08236033      18.08371911      20.26517363      -0.74189565      -1.47419150      -1.38987493
O        8.49870722      19.20870595      20.61625950       0.16412980       1.04852132       0.91776142
O        8.26921509      17.69952799      19.03690798      -0.17348346      -0.27466570       0.73455415
H        8.98066366      20.65433898      14.51002941       0.52838852      -0.35731789      -0.87582022
H        6.57536255      17.68437953      21.91640539      -0.06343805       0.04280778      -0.05126813
H        8.00464549      16.61773259      21.96531678      -0.16774791       0.42676535      -0.12829973
H        6.78644994      16.18443891      20.88306353      -0.00233678       0.59812608      -0.25104651
C        3.95402248       8.05823544       8.16942893       0.41508170      -0.46839795       0.11050402
C        3.21453251       8.34227896       6.88793014      -0.39911313      -0.33355918       0.60889241
O        3.72989485       7.66127184       5.92734809      -0.09787406      -0.03902192      -0.58326090
O        2.17470075       9.05080056       6.81994752       0.09801496       0.10809880      -0.33666334
H        1.31440509       9.58283269       8.09815638       0.16952934      -0.41937608      -0.22550548
H        3.87274550       8.78214736       8.96683687       0.03624166       0.40851144      -0.01687882
H        4.98751118       7.90992028       7.77774394      -0.13697226       0.03445592       0.50110805
H        3.65142349       7.10287774       8.67856405       0.00035789       0.23621857      -0.45043951
C        7.20325132      10.31411221       7.90811017       0.26517937      -0.85398082       0.90628012
C        7.55145114      10.64078836       9.37399846       0.21108909      -1.08511014      -0.74323172
O        7.23819659      11.66441178       9.92743857      -0.26606149       1.00862107       0.53332788
O        8.12436169       9.60112221       9.99383797       0.53534400       0.04246033       1.18976497
H        8.45666114       9.83266145      11.01641027      -0.12544360      -0.30096972      -1.04703149
H        6.38512021       9.59091463       7.99213494      -0.10824472      -0.04478184      -0.06252540
H        7.96945584       9.81444916       7.29913888       0.07246140       0.18996820       0.15724286
H        6.83834594      11.18820678       7.48740705      -0.34449650       0.88392340      -0.57389403
C       12.01402005      12.53184506      25.80756677       1.20908210      -0.08907423       1.10402996
C       11.76483360      12.96941162      27.28689054      -0.33306479       0.45931072       0.11712629
O       12.21258659      13.97325903       8.72822083      -0.25236041      -0.97750005      -0.55237717
O       10.82393023      12.10538985      27.81076144       0.09705778      -0.03399793       0.09395153
H       10.46718629      12.33389435      28.73246740       0.25681443       0.32524862      -0.33796636
H       12.13299674      11.43293344      25.78795762      -0.09821283       0.13903535      -0.03859573
H       12.97241328      12.98565210      25.46962707      -0.32689963      -0.01800937      -0.01687175
H       11.18556105      12.80354199      25.20840912      -0.51641902       0.24550375      -0.36713070
C        9.42446248       7.47454117       7.48821353      -0.16375575      -0.40634218       0.49375473
C        8.40550938       6.66517603      25.76936627       1.64670627       0.80247520      -0.01361017
O        8.69269220       6.57429404      24.54724668      -0.29474839      -0.09042728      -0.28721413
O        7.43893041       6.09280971      26.35933489      -0.34906288      -0.03352816       0.26935485
H        6.95866508       5.30730160      25.49400015       0.03459357      -0.20483424       0.13538250
H        9.78789350       8.43518986       7.13832515       0.01641817       0.03207901      -0.49522149
H       10.31226009       6.89458344       7.84157518      -0.26978691      -0.00965172      -0.38221078
H        8.94098267       7.71806207       8.41123909      -0.31289807       0.11440412       0.51303195
C        9.57131124      16.76985127      15.35942731      -0.31391323       0.35770352      -0.39536160
C       10.91369861      -2.08434527      15.97655690       0.16646740       0.76429954       0.36938284
O       10.87584751      -1.65838838      17.31614256       0.58662387      -0.36411276      -0.84104967
O       11.98576930      -2.03489775      15.38057480      -0.32381595      -0.26319540       0.13232920
H       12.92083473      -3.04017236      19.39477692      -0.08244578      -0.10480962       0.19465612
H        9.65992276      16.69932608      14.25528480       0.06858569      -0.11546777       0.24882150
H        8.81724355      17.58967935      15.54493759       0.41133647      -0.33068054       0.07647041
H        9.14179973      -3.30509484      15.74938594      -0.04967126      -0.13705470       0.07392880
C       10.78885992      -0.18443164      12.22822152       0.12116058       0.24189884      -0.01955842
C        9.55193520       0.33539962      12.94377064      -0.22531739      -0.59770680      -0.27108621
O        9.82178400       1.21530931      13.87532660      -0.25088360       0.94318211       1.29319190
O        8.40799747      -0.05322698      12.70466339      -0.03609519      -0.15302426      -0.16021280
H        9.96843885      -1.69608121      17.62085560      -0.70941595       0.11553725       0.40305727
H       11.12478127      -1.18449226      12.55539084      -0.21247820       0.08930649       0.04940724
H       11.62424009       0.50393497      12.39556061       0.06614511      -0.04323481       0.04197398
H       10.60807815      -0.21114328      11.15118034      -0.10224851      -0.10583671      -0.07101123
C       17.17508133      13.58589628      10.48971254       0.87454655       1.75127992      -0.55235422
C       17.46245272      13.00974590       9.14100559      -0.10682109      -0.49001864      -0.12849735
O       18.58666598      12.56730260       8.88701376      -0.04504455      -0.01810345      -0.24536011
O       16.39246300      12.94171701       8.31201321       0.13938237       0.41410611       0.42449201
H       16.51479371      12.31324928       7.51058840       0.12061518      -0.32004834       0.01594178
H       16.71189304      14.61996250      10.35286715       0.18542777      -0.57368752       0.13548926
H       -1.00072509      13.72940343      11.01669104      -0.36681148      -0.07312364      -0.19421331
H       -2.61199672      13.02623805      11.08222018      -0.87648480      -0.74081373       0.62069394
C       14.27441431       0.59925406      22.95157191      -0.08985173      -0.45482419      -0.28997309
C       14.45282423       0.80234995      21.47159262       0.77699112      -0.43459855      -1.03638117
O       15.43837931       0.20989016      20.81195577      -0.98200602       0.45090544       0.59269846
O       13.62110682       1.55123637      20.83248153       0.08201790      -0.09725366       0.14218715
H       12.48831025       1.38508871      19.14282908       0.45074236      -0.06489373       0.60183337
H       13.68349249      -0.34106681      23.11561684       0.24683078       0.35622623       0.02771733
H       13.73331171       1.45226742      23.29490198      -0.39098775       0.29534539       0.38916240
H       15.22242700       0.55429759      23.47788887       0.06662201      -0.22077382      -0.00610909
C       22.89763150      16.89435651      19.53989270      -0.01362371      -0.89299866      -0.63144302
C       22.01975923      16.16260120      20.51757590      -0.30092663      -0.05498615      -0.01230360
O        1.99081841      15.37020467      20.09416185       0.54851707       0.45113065       0.69884223
O       22.33393035      16.46570234      21.82555381      -0.59527838      -0.79696522       0.05950314
H       21.83663100      15.81888493      22.51836184       0.16703317       0.49740572      -0.47345297
H       22.30282796      17.10604627      18.66510524      -0.43735602       0.43006625      -0.15855238
H       23.43836590      16.04862239      19.01827092       0.25967815       0.40994219       0.51260425
H        4.35119172      17.74779355      19.81827437       0.13591577      -0.06396204       0.20535822
C        4.29189146      11.84741782       6.02235691      -0.36704667       0.26933461      -0.05131371
C        4.19195905      12.24769433       7.45173398       0.29177369       0.31121319       0.63778541
O        4.87149155      13.40573955       7.73080448      -0.23717010      -0.37652662      -0.28782799
O        3.57086426      11.65622059       8.35825443       0.13744710      -0.13817534      -0.62556668
H        3.90676949      11.80901872       9.90189083      -0.36644493      -0.10833994       0.06727247
H        4.16299415      10.76124096       5.83932768      -0.09041117       0.38367441       0.01523957
H        5.21046978      12.24991902       5.62066869       0.34410448      -0.07992724      -0.12145826
H        3.53439500      12.52197521       5.53845326       0.08636289      -0.48795798      -0.01775514
C        3.69239515       3.82053206       7.35736113       0.12994116      -0.32886818      -1.75907804
C        2.19246725       3.91521825       7.61269288      -0.06287102      -0.26770272      -0.76122057
O        1.58867771       3.94222235       8.66357953       0.02024627       0.18973532       1.04703424
O        1.49125903       3.85061244       6.45011733       0.51548298       0.20289550      -0.47574283
H        0.49416071       3.89791631       6.55742423       0.05463062      -0.16756649       0.28578741
H        4.43197190       3.94268597      27.28088273      -0.13212514       0.10721514       0.43575647
H        3.98920293       4.46810007       6.44437537      -0.35430797      -0.21955187       0.80278445
H        3.89995942       2.80453966       6.86504577      -0.29153021       0.43076084       0.46921184
C        9.63071694       3.70919144      21.95138692      -0.38591730      -0.36704417      -0.12205436
C       10.85969029       3.22436428      21.23561970       0.01546803       0.19314077      -0.04916663
O       11.16161111       3.33468012      20.03576672      -0.33938234       0.16023652      -0.20563506
O       11.61793688       2.54493906      22.05332753       0.65042108      -0.35323138       0.10916078
H       12.42420002       2.17823643      21.46393932       0.09422083      -0.12345638       0.40463318
H        9.60399992       3.07219857      22.84721718      -0.20310918       0.13756842       0.01320868
H        8.78939826       3.39030920      21.29296602       0.03403429       0.34740689       0.25590329
H        9.58255303       4.76208648      22.28193693       0.02751128      -0.09947173      -0.30433194
C        4.91893902      13.36546812      21.38441373       1.21938336       0.93272262       0.46070076
C        5.60376971      12.03728682      21.68379126       0.35627775       0.14749784      -0.23460446
O        6.80564909      12.06323490      22.20636999       0.00877480      -0.36664068       0.09620401
O        5.09559417      10.95148631      21.35664617      -0.49429851      -0.30668109      -0.16504831
H        7.69771442      10.79710069      21.57678322       0.04975064       0.41099473      -0.31341949
H        4.92673458      13.99184685      22.33665180      -0.38898294      -0.44121550      -0.41167281
H        3.96492089      13.22986678      20.88712491      -0.12938984       0.11611998       0.04147834
H        5.64912389      14.06970458      20.79432046      -0.68681071      -0.82592101       0.25168577
C        7.42215710       1.21929695       9.13843815       0.47278088      -0.09447726      -0.14359823
C        8.62928263       1.23916484      27.31542510      -0.71449441       0.15581400      -0.15823689
O        9.33643128       2.19839082       7.86892037      -0.03213176       0.29948067       0.32002774
O        8.76451444       0.07412815      26.66038618      -0.47586443      -0.34576286       0.42497440
H        9.39082932       0.22832685      25.91812822       0.43126109       0.04399670      -0.39812876
H        7.23422434       2.16037716       9.63161604      -0.05702777       0.46106769      -0.18971786
H        7.71828023       0.60883825       9.97213082       0.15374862      -0.49165289       0.34523509
H        6.50082358       0.74879546       8.74607361       0.25859194       0.20537574      -0.12286993
C        8.19183398      12.95220614       6.00793562       0.26663060      -1.21481253       1.12637226
C        8.30047395      14.14450478       5.20353514      -0.53129727       0.50995309      -1.78949306
O        9.02572947      15.11888037       5.36391694       0.13938114       0.03159576       0.34404365
O        7.44375212      14.09775230      23.24908139       0.81284380       0.74360641       0.91003292
H        7.24018790      13.12426191      22.93315799      -0.28789415       0.03015342      -0.22178005
H        9.16068530      12.61492280       6.52711190      -0.65145234       0.09116652      -0.59206262
H        7.57152507      12.14101643       5.53719047       0.62113358       0.21522118       0.06053740
H        7.57931938      13.19263343       6.87353114      -0.20372676       0.23190904       0.26297178
C        3.36067450      13.65681753      12.45218467      -0.93390194       0.48970748       0.34322673
C        3.58657493      13.23481872      11.06835148       0.72494105      -0.64555693       0.11866861
O        3.60761792      11.90256871      10.87107378       0.12961286       0.01939528       0.04329479
O        3.88931507      14.01090853      10.17110833       0.03150556       0.65175971      -0.49510106
H        4.59407662      13.67525988       8.65668955      -0.03763408      -0.01311252       0.14372711
H        2.77910639      -6.28467143      13.03760330       0.32125825       0.71590323      -0.25015344
H        2.81923201      14.65024145      12.28360342       0.09690793      -0.60948008       0.45120272
H        4.29573413      -5.19150304      12.95586815      -0.07949660      -0.18124631      -0.11587332
C       16.56912008       2.12686080      24.83298567      -0.45024825       1.40746325      -0.79875671
C       16.86970015       3.38238499       6.58325486      -0.34513734      -1.08745296       0.14441933
O       18.05807846       3.68523561       6.77240672       0.31317048       0.57088786       0.08477587
O       15.85655312       3.87508913       7.26015484       0.24508278      -0.04300289      -0.32626305
H       14.39318139       3.69235752       6.60185155      -0.19131165       0.09312417      -0.09632624
H       17.42886389       1.55384101      24.49402982       0.19048969       0.17214843       0.01207362
H       15.96514083       2.49318350      23.91301257       0.52307410      -0.29234685       0.68302334
H       15.91729831       1.50071605      25.38377889      -0.46867319      -0.47376998       0.39211680
C       11.97024325      -6.61405270      11.74336064       0.79059120      -0.17612870       0.47021977
C       10.88542015      13.59562696      11.69258110       0.90053990      -0.21168961      -0.54587477
O       11.13406008      14.74307110      12.30108797      -0.20310105      -0.20232873      -0.05739307
O        9.92697697      -5.77099007      10.93519800      -0.51111028       0.20390922       0.10577112
H        8.43709242      -4.75073045      10.85318899      -0.06146287      -0.03867824      -0.04293513
H       11.53592671      -7.48100437      11.30999255      -0.27334582      -0.68082646       0.02816704
H       12.44979626      12.33325241      12.75314386      -0.50128409       0.11396493      -0.52524037
H       12.86996901      12.69409001      11.09311662      -0.37613409       0.41531406       0.15616958
C       10.70171711      18.04648146      22.56251828      -0.02403252       0.59609665      -0.44349700
C       10.09764054      -0.00669355      23.45763930      -0.44475766      -0.43119044      -0.09822934
O       10.48178609       0.16484763      24.62686214       0.14567481       0.01431776      -0.09949536
O        9.02564643       0.66672061      23.01571702       0.21217121       0.00188931       0.04994528
H        8.73384881       0.44204689      22.01573280       0.16272278      -0.26419959      -0.01791678
H       11.72747705      18.33146988      22.29410619       0.06759869       0.05186210       0.10532150
H       10.18151159      17.99188468      21.57496430       0.11965930      -0.12825641       0.48802366
H       10.76083053      17.09115103      23.08808325      -0.16435672      -0.03801337       0.04758879
C        8.67935409      -3.41996400       8.87585847      -0.30733706       0.14785351      -0.27557257
C        7.67986362      -3.16414848       9.98126010       0.21134966      -0.33150317       0.05025801
O        7.62350114      -4.17024462      10.90393271      -0.22639930       0.73521958      -0.11530371
O        6.99019638      -2.12684682      10.06509991       0.15155207      -0.65542335       0.24595058
H        5.84115208      -1.73249536      11.39626416      -0.41764357       0.18369748       0.05368210
H        9.61316043      15.48921996       9.34655992       0.49755492      -0.02629174       0.22717390
H        8.80980248      16.65784957       8.28216585      -0.08859558      -0.32356908      -0.05777781
H        8.46698454      -4.35022073      27.43067120      -0.12315935       0.52732837       0.15285877
C       13.86105035      16.50056248      12.44558818      -0.79468619       0.08876800      -0.33785913
C       14.26992902      15.37332500      13.28859963      -0.89573442      -1.51012655      -0.11458539
O       15.30800662      15.47263085      13.98515561       0.01088396      -0.14090329       0.72141104
O       13.55634962      14.25349253      13.22365932       0.30559725       1.01707221       0.06720264
H       12.11525402      14.58617208      12.59320016       0.28980126       0.19788587       0.50447902
H       13.00647267      -2.90245437      11.75183487       0.28102798       0.34508248       0.53139530
H       14.67082310      16.69552706      11.80362308       0.78136765       0.27371398      -0.62574832
H       13.77808529      17.38785999      13.07753967      -0.31112437       0.09808315      -0.15408923
C       19.47502113      12.98072775      16.58814093       0.08601224      -0.51601769      -0.22849919
C        0.93068186      12.04607271      15.55752304      -0.00561860       0.22653776       0.25816681
O       20.29213021      12.39876678      14.38790456      -0.13718660      -0.01185295      -0.09540592
O        1.26757679      10.88006189      16.07156024       0.61131768      -0.47385739      -0.36398477
H        2.03298099      10.41905897      15.30134811      -0.36395217       0.10517744       0.06185663
H       19.94056114      12.80191692      17.55808381      -0.27941463      -0.11218634       0.14548048
H       18.38394305      12.89743337      16.53954753      -0.00303437       0.00399075       0.25285205
H       19.77998443      13.93736627      16.27045887       0.06386186       0.91402867      -0.20484529
C       16.30239539       3.66845084      18.46580184      -0.24388838       1.03678866      -0.60323669
C       -2.91646474       3.10760271      17.04131846       1.27096643      -0.55519452       0.22552105
O       -2.04775791       2.33312689      16.59069001      -0.25889632       0.16614358       0.36577917
O       15.30617009       3.53418766      16.21484721      -0.63580315       0.36245050      -0.00644816
H       14.70496908       4.17518718      16.71382111      -0.34390011       0.15809830      -0.19684460
H       17.18492581       4.35682749      18.54991729      -0.22122222      -0.42367137      -0.10082044
H       -2.77980497       2.94326904      19.22510722       0.19661549      -0.80240146       0.43290337
H       15.42898945       4.29309076      18.73923156       0.07414120      -0.11367845      -0.19577007
C        7.26780470       8.62859248      22.51991254      -0.19080214      -0.13342276      -0.37767518
C        7.69787027       9.00168485      21.08620460       0.10205369      -0.70912455       0.09704587
O        7.77942099       8.12691784      20.22153943       0.02572212      -0.11170000      -0.11815013
O        8.08856747      10.24872330      20.80530237      -0.18846634       0.03149879       0.58782145
H        3.05639999       7.83191583      24.02416211       0.15484448       0.14202327      -0.07342026
H        7.33978560       9.48879813      23.17511002      -0.08598573       0.06842283       0.21700073
H        7.91343962       7.80923836      22.89043164      -0.08669410       0.21691584      -0.12152063
H        6.23265130       8.20011042      22.51776305       0.30613066       0.27645221      -0.04511034
C       16.12612434      12.19364206      13.94039066       0.33552076      -0.14047557      -0.55056099
C       15.59040010      12.16996264      15.34043704       0.81660792       0.32550145      -0.53414651
O       15.72276370      11.20151996      16.05653123      -0.17966868      -0.67815146       0.58568737
O       15.06413009      13.29392793      15.78922157      -0.42256476       0.80944502       0.16190889
H       15.03659064      14.04771084      15.09348713       0.16336463      -0.27103435       0.08204413
H       17.19231804      12.50923671      13.77008307      -0.33538796      -0.05971380       0.47467487
H       15.53770797      12.89319046      13.35586898      -0.18640476      -0.00308670      -0.25121946
H       16.07459059      11.16764542      13.54458928      -0.10707151       0.09266523      -0.04448079
C        6.58783558      13.89097944      14.43105431      -0.05137570       0.65528596       0.60896752
C        6.68369802      12.66033967      13.58707200       0.43582260      -0.18160423       0.07757848
O        6.14923935      11.59187197      13.82985777      -0.47795198      -0.36232974       0.32725577
O        7.52896912      12.76014371      12.55725569       0.31213533       0.35838580      -0.42417903
H        7.45923745      12.02249253      11.88646583      -0.08637728       0.16563160       0.23273807
H        5.51288619      14.10099153      14.75567272       0.57373382       0.03878075      -0.44690006
H        7.12393759      14.78319373      13.97624033      -0.48657827      -0.48243421       0.16838189
H        7.03768557      13.74464327      15.45527260       0.01405120      -0.16548698      -0.43553196
C       16.62392957       1.07483848      10.62921370      -0.83259468      -0.66512247       0.47315857
C       15.81743853       1.27905237      11.90581167      -0.64395571      -0.09994902      -0.12473994
O       14.58844732       1.17903323      11.86675000      -0.26443840       0.16019737      -0.04103554
O       16.39600078       1.38954113      13.10769524       0.41581159      -0.01436546      -0.27637618
H       17.41516683       1.41513985      12.95487554       0.09395346       0.22762653       0.25687204
H       17.19160207       0.18662242      10.93666929       0.11926268      -0.16362831      -0.37934774
H       17.32202116       1.82740469      10.36871697       0.36041155       0.55777352      -0.13602885
H       15.85683610       0.84808109       9.83220860       0.59646426       0.08085220       0.24786687
C       12.16020938       9.42629967      22.82739103       1.09857352       0.68853605       0.73130789
C       10.84636392       9.00472983      23.31946696      -0.56178123       0.94821241       1.11319311
O       10.02619854       9.78714047      23.84442419       0.29209058      -0.28533457      -0.30444092
O       10.68421802       7.71205130      23.24324926      -0.19527538      -0.86975830      -0.12372110
H        9.85512530       7.42898574      23.75831351      -0.11545172      -0.15051846       0.06406664
H       11.99026087       9.71024957      21.81983662       0.19825336       0.12318958      -0.81636899
H       12.92869000       8.63550639      22.94130079      -0.20358770       0.12432526      -0.17176906
H       12.55773841      10.36440909      23.37125895      -0.40752759      -0.75184059      -0.34289501
C       11.36690860       4.86396642       5.82159106      -0.02314834       0.15882608       0.27016948
C       12.83167382       4.79045110       6.12597515       0.61786620      -0.61130125       0.82253687
O       13.44581464       3.56719157       6.19914221      -0.45140787      -0.09045416      -0.25439722
O       13.49323156       5.75749955       6.47781566       0.04927590       0.88095289      -0.05766736
H       16.16532555       4.37894681       8.71813001       0.00312057      -0.10290403      -0.26550848
H       11.06768436       5.92606350      25.12445218       0.11902824      -0.41331333      -0.21643313
H       10.76938251       4.24401682       6.53143141       0.19283070      -0.01119534      -0.30063099
H       11.20851328       4.53940267      23.94540337      -0.17772321      -0.05337237      -0.02159092
C        5.75876905      17.54692540      15.78640851      -0.31265308      -1.27257170       0.60679147
C        4.27416837      17.17020259      15.61234379       0.48764943      -2.25319440      -0.23327143
O        3.98758901      15.93543273      15.32434427       0.08664295       1.55646261       0.22866361
O        3.40914788      18.07665167      15.93128775      -0.70446785       0.19443386       0.06389031
H        2.32297697      17.66457656      15.79099570       0.14935119       0.30404474      -0.31228639
H        5.77973439      17.91981425      16.83752854       0.30063640      -0.06153856      -0.26212367
H        6.04566098      18.30940649      15.10522204       0.27052584       0.41900750      -0.31899160
H        6.38432028      16.56516241      15.66712089      -0.54117705       1.04815030       0.12151617
C       15.32558383       4.95465837      13.30547957      -0.73713907      -0.14080660      -1.89476162
N       16.03887979       4.75605371      11.92760671      -0.07758702       0.46121206       1.87161473
C       17.41415356       4.93735637      11.74509008      -0.71658741       0.22067759      -0.13600617
C       17.59841511       4.85764925      10.40201536      -0.25236431      -0.46069243      -0.66028684
N       16.34195432       4.60479925       9.75485053       0.87356955       0.21770992       1.32661280
C       15.45496540       4.56255566      10.77292410      -0.60195101      -0.34881165      -1.11891106
H       14.33533160       4.48369569      13.28276915      -0.00020857      -0.05908148      -0.30520838
H       15.14919194       5.99524819      13.47410822       0.26788304       0.44891676       0.11938800
H       15.81772849       4.42247188      14.03005961       0.93749039      -0.51184090       0.97321778
H       18.03175830       5.29278106      12.55085014       0.14843876      -0.13183349       0.08291711
H       18.53852079       4.69485477       9.91252966       0.17662789       0.19465750      -0.34860387
H       14.41892969       4.27666121      10.62898225      -0.00844925       0.13243770       0.09040378
C        5.77402806      16.67066715      25.14910991       0.29631224      -0.42910366       0.07485599
N        5.07952013      17.80433130      25.71995365      -0.86014725       0.07238606      -0.33938755
C        5.12267403      18.21750855      27.03782533      -0.70699468       0.23639896      -0.31263125
C        4.00769518      -0.09506318      27.14827257      -0.10395790       0.14431887       1.28062802
N        3.29563255       0.00914330      25.98733137       0.10789871      -0.24373093      -0.57442905
C        3.95088315      18.35920243      25.13089425       0.57053452      -0.12106044       0.43111899
H        6.77534642      16.82662712      25.51109658       0.57149515      -0.16170314      -0.23948431
H        5.74221021      16.55168606      24.02095989      -0.06954711       0.24268728       0.69492033
H        5.44142539      15.74224157      25.65803338      -0.07749618       0.10293602      -0.26772399
H        5.82378236      17.83270893      27.75857310       0.08412587      -0.02360935      -0.01263247
H        3.60170284       0.34901771      28.12560519       0.41097137      -0.23855679      -0.86277723
H        3.84820788      18.09201549      24.08411557      -0.42462202       0.21423240      -0.01206956
C       17.44592244      -3.73429346      25.13179666      -0.47264544      -0.45416795      -0.19488014
N       16.27103961      -3.68646664      24.19320448       0.29391026      -0.80350854      -0.40488723
C       14.98360307      -3.15659791      24.33398682      -0.23411799      -0.66194353      -0.26115842
C       14.25125039      -3.72953724      23.27204038       0.94619505       0.22175468       0.25859440