640
Lattice="18.700606 0.0 0.0 0.0 18.700606 0.0 0.0 0.0 18.700606" Properties=species:S:1:pos:R:3:forces:R:3 energy=-80128.4034848829 pbc="T T T"
C        5.31361771       5.62179200      15.09969869       0.33901592       0.18463473       0.59754108
C        3.89321549       6.14904289      14.99094006      -0.35533638      -0.23413001       0.26103743
O        3.64387644       7.36503289      14.75309233       0.34653122      -0.23763736      -0.05710477
O        2.94577933       5.24417382      15.19386017       0.46285567       0.74649407      -0.03287253
H        1.45874642       5.75556369      15.18028730       0.62994679      -0.47685040       0.42504148
H        5.34606708       4.62258234      14.67125605       0.14310587      -0.04868520      -0.12828565
H        5.69683638       5.50469211      16.17630946      -0.47786450       0.11429509      -0.50971322
H        6.04541097       6.32204706      14.67552099      -0.11476875      -0.05287774      -0.17691472
C        4.71509080      12.03591961       5.19944868      -0.02970181       0.10803615      -0.65162153
C        4.82719164      -5.14871152       5.31271631       0.76557906      -0.14375891       0.59076579
O        5.78625933      -4.67258436       5.96084723      -0.70804907      -0.07216325      -0.46772961
O        3.88560988      -4.36308138       4.77336402      -0.25345646      -0.20903471      -0.29394859
H        3.16825115      13.78931565       4.23330672       0.15669876       0.04491867       0.19739254
H        5.72463005      11.65402996       5.31205384       0.18005372      -0.09533848       0.01633469
H        4.31300876      11.67413248       4.21417817       0.04494576       0.20795490       0.44200809
H        4.14283315      11.64136357       6.03458478      -0.21427842      -0.01625858       0.08838099
C        3.83752212      12.30190174      -2.84918510       0.13822389       0.73342513      -0.61365136
C        3.29608775      13.36555139      -1.98560426      -1.06712516       0.97549147       0.58226814
O        3.99066943      14.30597965      -1.48754586       0.37496372      -0.56485571      -0.07524862
O        1.97874519      13.42086775      -1.84800348       0.37247039      -0.16692234      -0.00626696
H        1.69145597      14.50076837      -1.32753387       0.20871409      -0.21348205      -0.18938425
H        3.30704728      11.37662687      -2.75163644       0.05282895      -0.39868127       0.18290661
H        4.92107863      12.35165885      -2.72585980       0.01325602      -0.48978429      -0.11599041
H        3.58792389      12.66801658      -3.87982986       0.18668613      -0.12808885       0.19613207
C        6.77218600       7.74762952      11.99746833      -0.08457986       0.21048321       0.69057463
C        7.35688135       7.90994861      10.63461969      -1.95848251      -0.31676327       0.08330107
O        8.19152500       8.69114462      10.27872628       0.83789991       0.32093690      -0.23284818
O        6.62339353       7.19658879       9.70315617       0.87145907       0.30523991      -0.67371481
H        5.78790468       6.83199501      10.01988639      -0.44431042      -0.26980576       0.58784410
H        7.36608144       8.28940623      12.73655959       0.27915584      -0.20846993       0.12164141
H        6.63482627       6.67339323      12.23396019       0.02028565       0.29442328       0.05515435
H        5.78343441       8.26806222      12.15002266       0.29233816      -0.38888130      -0.42216544
C        4.16948623      -4.35478254       9.26930042      -0.55999357       0.17354980      -0.97331035
C        3.07941561      -4.94910698      10.06621475      -0.61728559      -0.48577536       1.73761342
O        3.06405411      13.25895166      11.22303095       0.71710854       0.33000274      -0.76877533
O        1.87083613      -4.96414755       9.48130455      -0.46098831       0.52144581      -0.69391317
H        1.79213723      -4.16298387       8.85652000       0.06321872      -0.29007255      -0.03584233
H        4.44855721      -5.11346871       8.52887702      -0.03262840      -0.05070522      -0.16138301
H        5.08368727      -4.11542408       9.72865307       0.55227858       0.23886026       0.67944667
H        3.74938207      -3.49264553       8.67815366       0.26490074      -0.31193671       0.26552249
C       -6.38831228      -1.81750192       8.78823559      -0.27715792       0.57757379      -0.28040980
C       -6.68080329      -2.01117232      10.28679989       1.09909929      -0.95015435       0.67999273
O       10.81782756      -1.57644343      10.67117167      -0.22005732       0.03520991      -0.35371963
O       -5.85861840      -2.54629899      11.09627830      -0.80029313       0.60868896      -0.84544831
H       11.30898713      -2.31001256      14.21814075      -0.01837290      -0.16394389      -0.04050146
H       -6.83515276      -2.51829204       8.04613409       0.24379891      -0.19053969       0.44722426
H       -5.34610788      -1.52890871       8.48537414      -0.39509904      -0.42354346       0.41555189
H       -6.98063261      -0.94092557       8.51161603      -0.01839434       0.23289556      -0.02901396
C       -1.19436906       7.68531410      14.74058795       0.01383333      -0.04328467      -0.46695753
C       -0.37233500       6.60017206      15.45544990       0.10905243      -0.58592365      -0.10787409
O        0.71252366       6.27034445      14.79875612      -0.58140336       0.87407151      -0.91288616
O       -0.69589976       5.97088973      16.48896320      -0.35702154       0.61740345      -0.06513014
H       -0.78835356       4.76233664      17.54683984      -0.36112719      -0.26156726       0.02902034
H       -1.04488941       8.63066503      15.27980155      -0.15877376      -0.06533396       0.15450801
H       -2.26420151       7.36825767      -3.97993359       0.30603527       0.22312683       0.10007274
H       -0.87480176       7.94740115      13.65875833      -0.07389426      -0.48619748       0.86553332
C       -2.97489831      10.24832269       8.19048120       0.99519980      -0.20162062       0.80326695
C       -3.08759757      11.11987784       6.99470502       1.21587117      -0.78976225      -0.18469931
O       -4.04198972      11.80274076       6.78095907      -1.21319375       0.78609783      -0.36554309
O       -2.09604440      11.02142943       6.03387794      -0.30437231       0.23537132       0.32722967
H       -1.22946120      10.66638982       6.39414552       0.18084197      -0.30129729      -0.09888148
H       -1.89919460       9.98577998       8.48455496      -0.67865105      -0.09808111      -0.45148617
H       -3.60817282       9.37560909       8.00347462       0.09454088      -0.20637040       0.03501584
H       -3.32684612      10.70010240       9.12700984      -0.26880019       0.21643879      -0.18116925
C       -3.31620075       9.24158817      11.87820796       0.83472706       0.99880034      -0.10427985
C       -2.99149898       7.79743476      11.64810222      -0.08229619      -0.10941738       0.17679907
O       -2.26705775       7.43155542      10.71361616      -0.09476038      -0.22493061       0.15402015
O       -3.59966743       7.02046598      12.57306319       0.17706059      -0.05279705      -0.61387666
H       -3.43050741       5.91129267      12.40537786       0.10191730       0.27628748       0.21647302
H       -3.04615156       9.55783537      12.93035115      -0.55664778      -0.19687861      -0.40022956
H       -4.33604006       9.46694076      11.51708726       0.07249516       0.00360826       0.38334567
H       -2.61736334       9.90267064      11.27205339      -0.39951241      -0.46318036       0.17808835
C        8.86207098      -0.96567494      14.91038361      -1.03719447      -0.95706139       0.55411376
C        9.71615234      -0.52843795      13.80850552       0.21159795      -0.67465680      -0.36775547
O        9.48848771       0.60144214      13.35864587      -0.20366150       1.25597423      -0.63908553
O       10.59853188      -1.30935052      13.26339916       0.10064193      -0.13602120       0.19018993
H       10.68948181      -1.53009005      11.68755735       0.24898951      -0.08507514       0.03781397
H        7.75775901      17.59314009      14.57452958       0.96131155       0.13321363       0.17493271
H        8.82534179      18.43980119      15.70997135      -0.09724185       0.62012904       0.25202613
H        9.15938176      -1.87192834      15.46472093       0.02695224      -0.10943249      -0.38832499
C        3.37931007       0.81658930      -3.35202896      -0.21987324      -0.94875159      -0.33812850
C        2.96421916       2.24861106      -3.28615690      -0.13391231      -0.26266097      -0.67650074
O        2.10483411       2.54606790      16.25087870       0.27224168       0.57399986      -0.18125675
O        3.48855984       3.01008334      -4.31262840      -0.17815929      -0.88170289       0.67368249
H        3.29281496       3.97870341      14.61255988      -0.25998895       0.31627239       0.23677004
H        4.13244027       0.58614322      -2.61080112       0.11898610       0.04591590       0.37680495
H        3.85333480       0.40201049      -4.28225900      -0.34888923       0.43118450       0.15004299
H        2.44888921       0.22378350      -3.08788173       0.57143937       0.18571595      -0.22995173
C        5.21478584       2.96617942      11.90936421      -0.35776222      -0.65266349      -0.93771699
C        6.08541124       1.75545148      12.06419546       0.19327195      -0.99008631       0.54199105
O        5.79676932       0.55137951      12.25576025      -0.19026663       0.94061797      -0.14065018
O        7.40501228       2.12859800      12.08101064       0.10147165      -0.29120305       0.40419825
H        7.94996184       1.41660771      12.56090996      -0.29584522       0.27381665      -0.30050016
H        5.57726391       3.45582901      11.00030546      -0.11744063       0.07522241      -0.16426933
H        5.46530145       3.63940303      12.67795298       0.06894802       0.50997290       0.68989485
H        4.11293202       2.78887206      11.84527650       0.54155197      -0.03827047       0.05470889
C        8.40634487      11.57000125      -3.26975813      -0.28967730       0.16534003       0.20613954
C        7.91254332      10.17170227      -2.80042445       0.95948492       0.09708023      -0.17134796
O        7.16399028       9.43686547      -3.42373447      -0.08436508       0.22100223      -0.01136750
O        8.50968018       9.69984994      -1.65531563      -0.01613156       0.33734824      -0.09970662
H        9.11834907      10.37842560      -1.23579440      -0.29043355       0.01195385       0.09934995
H        7.51668193      12.22102452      15.54558024       0.10346290      -0.14421623      -0.33924421
H        8.83140423      11.61467819      -4.30842017      -0.38815934      -0.13264138       0.40786367
H        9.10584981      12.10040662      -2.59320054       0.04381564      -0.39844534      -0.02310698
C       -7.52903081       2.61555753      15.92711737       0.56630251      -0.03339359       0.25547708
C       -6.84982242       1.29892156      -2.57549605      -0.05771973      -0.02819647       0.17878010
O       -6.04363738       0.81293221      -3.36113249       0.43093056      -0.11556832      -0.48527725
O       -7.17803256       0.63791682      -1.45891840       0.76436252      -0.47398171       0.31004394
H       -6.30875681      -0.03275239      -1.31918811      -0.68464028       0.25032537       0.08939657
H       -8.35610547       2.38707707      15.29023413      -0.60256351       0.09052296      -0.27082034
H       -6.83631957       3.24809585      15.33843097      -0.21644088      -0.01618831       0.19809825
H       -7.82514587       3.01693402      16.91426551      -0.03029549       0.04390480      -0.40243820
C        2.03694019       5.89208636      11.71050882      -0.31819323      -0.02267512      -0.02110836
C        3.34549168       6.55036913      11.48335702       0.27945748      -0.34787588      -0.65296087
O        4.31612926       5.98627248      10.97069403       0.30352126      -0.67972458      -0.15089712
O        3.49585647       7.82644432      11.68851863       0.15650713       0.81518304       0.01978086
H        2.65497089       8.32077034      11.91048070      -0.53684947       0.25737505       0.42079310
H        2.06377154       4.80651286      11.53840456       0.01213516       0.18560642      -0.11869643
H        1.25744198       6.40187733      11.11869553       0.08203623      -0.14307166      -0.17724281
H        1.67346992       6.08153217      12.70574511      -0.00832160       0.02907903       0.46823874
C       -6.39497418      -1.69024456       0.78019822      -0.34716574       0.17655562       0.49436878
C       -5.21959501      -1.92451367      -0.13195640      -0.49783819       1.28157091       0.42387875
O       -5.07491364      -0.91123298      -0.93842496       0.23628580       0.17964913      -0.85834423
O       -4.42464537      -2.84727543      -0.01116084       0.47636093      -0.94272225       0.06961985
H       -4.42996011      -3.96689224       1.62358994       0.11325319      -0.00640692      -0.30544544
H       -6.28744172      -0.77276831       1.42587598       0.37289595      -0.50664456      -0.06267000
H       -6.64201618      -2.56543933       1.38194374      -0.06482825       0.03444570       0.13222698
H       -7.27924276      -1.33616032       0.25196125      -0.17724000      -0.26418194      -0.30159052
C        7.24782199      -2.44541669       3.57028170       0.08319729       0.43053716      -0.63227876
C        8.41139786      -3.22145326       3.02806679       1.81671567      -0.16176431      -0.37400771
O        9.56164470      -2.78583554       2.60626285      -2.03934530      -0.60906691       0.56825872
O        8.12546426      14.15152124       3.18469251       0.05442663       0.28173541      -0.10586213
H        7.54650883      11.59451873       1.75609975       0.06717068      -0.17001774      -0.40921724
H        7.52279059      -1.85106998       4.40276238       0.46179575       0.39596188       0.62399125
H        6.53473578      -3.13849986       3.95930022      -0.48242073      -0.22730833      -0.00361317
H        6.83024358      -1.67878336       2.88458029       0.06209321      -0.36576957      -0.07466498
C        6.69830471       2.21999494       3.83560461       0.58042984      -1.74516164       1.30687413
C        8.21775626       2.28638168       4.25289182      -1.18552289      -1.16126270       0.36534794
O        8.83565109       1.40795562       4.91031945      -0.48391703       0.98536989      -0.83299233
O        8.65709731       3.45934043       3.83572788       0.60327622       0.07480190      -0.10014266
H        9.61931237       3.44043450       4.01447828       0.42234590       0.41304929       0.12514872
H        6.08682764       2.28297598       4.76241162       0.15926557       0.13195501      -0.12130821
H        6.45220236       1.17289012       3.48005939       0.17003789       0.59197678      -0.05082611
H        6.42057487       2.98258052       3.19302384      -0.24054056       0.77556225      -0.87261718
C        0.92148539      -3.85668193       5.95757918       0.55063655      -0.27851185       0.28138257
C        1.01670360      -2.69305223       6.89511121       0.15015075      -0.45291954       1.63906021
O        1.63845631      -2.71429987       8.03137638      -0.52550804      -0.10715085      -1.49388987
O        0.25912732      -1.65537545       6.66257259      -0.18534796       0.51046287       0.06727309
H       -0.60008284      -1.14551855       7.93111156       0.16785628       0.24308002       0.13444587
H        0.08064346      -4.52191091       6.21732272       0.10119790       0.05577344       0.10981063
H        1.87925831      -4.40112131       6.01879920      -0.25517266      -0.06865043       0.05240704
H        0.77638087      -3.58827842       4.92887618      -0.09735294       0.26334034      -0.34893033
C        7.18560866       2.30893833      -2.70945704      -0.46712512       0.43856643       0.01147403
C        6.54339244       1.33201379      -1.75647773      -1.02366563       0.78685024      -0.09572751
O        6.72715758       0.12855465      -1.66067742       0.21542119      -0.33524044       0.09423819
O        5.60108755       2.03214644      -1.05380860       0.34792381      -0.29886441       0.18062053
H        5.06588800       1.38441086      -0.28182691       0.27753263       0.14521017      -0.40834868
H        6.37641474       2.93342428      15.52336900       0.25664585      -0.18896687       0.35388918
H        7.68215354       1.87271244      15.14177654       0.49478374      -0.19535154      -0.00217336
H        7.76845261       2.97050980      -2.03497019       0.10822101      -0.03015230      -0.49875811
C       -2.98583955      -0.27313379       7.73593118       0.16910879       0.44333165      -0.58797668
C       -2.02270881      -0.10788661       8.84966231       0.57244372      -0.91600207       0.05226166
O       -0.76416511      -0.65514069       8.78656905      -0.59226533       0.20338310       0.03888257
O       -2.39730581       0.38090832       9.88916172      -0.13483136       0.63887815       0.70032023
H       -8.14200467       1.07464364      12.12019639      -0.19536578      -0.25866240       0.45925988
H       -3.59217989       0.65624688       7.76070574       0.09788274      -0.23234347      -0.28768732
H       -3.65774435      -1.10284145       7.94595990       0.01588383      -0.14551540       0.01316412
H       -2.48056227      -0.41644853       6.76067820      -0.25425009       0.05230024       0.08771851
C       11.28049914      12.68839427       1.55106451       0.14935437      -0.81298095      -0.62878628
C        9.98775850      12.02539803       1.04209105       0.31920997       0.25192809      -0.67013026
O       10.00023421      11.37587099      -0.02791002       0.23473852      -0.29778558      -0.40057066
O        8.93445723      12.20081428       1.74101430      -0.12539848       0.24878632       0.65993442
H        8.75037828      13.44127733       2.77364175      -0.08383212       0.36884741      -0.16732884
H       11.54586447      13.67885668       1.18755148      -0.17410103       0.09281497      -0.15517497
H       12.14762927      12.00051810       1.40067074      -0.31041565       0.32606209      -0.01011836
H       11.06423652      12.70830851       2.56611793       0.16268644       0.34738011       1.25103830
C       -3.72788767       6.60681546       0.89843221       0.25902267       0.47392916      -0.76662725
C       -2.39536709       6.83225573       1.67151205      -1.78452655      -0.37286242      -0.39913384
O       -1.70485756       7.77180997       1.38764907       0.96427355       0.81275201      -0.17293582
O       -2.24932087       5.97460122       2.65597776      -0.09056428      -0.76960741       0.15105089
H       -1.46713315       6.16489836       3.25417252       0.23691387       0.39781665       0.17021178
H       -4.26420738       5.66947932       0.90650137       0.27546364      -0.37614216       0.14457972
H       -3.53553241       6.87528803      -0.17007480       0.11254209      -0.19638006       0.25890595
H       -4.51558780       7.32986395       1.12766295       0.13320688       0.22490286       0.40150501
C       -1.36357172       3.28247361       4.97614822      -0.06161090       0.08270830       0.70374795
C       -2.72421830       2.72388011       5.20702364      -0.34498425      -0.18178762      -0.28145355
O       -3.42644465       2.97457181       6.17958062      -0.18684336       0.07852605       0.42738873
O       -3.12527199       1.87812133       4.23716537      -0.23217708      -0.18854753      -0.06944662
H       -4.05070731       1.40900573       4.48804246       0.31144445       0.09607067       0.12008726
H       -1.15625469       4.08301230       5.70839289      -0.06366008      -0.18117448      -0.08683985
H       -1.28264474       3.71006715       3.99716452       0.19604194      -0.05150941      -0.46107110
H       -0.69423871       2.43702826       5.17767466       0.21400273       0.12135535      -0.23889122
C       13.19476229       4.55062169       3.36312730       0.22742613       0.20296559      -0.72430226
C       11.96838506       4.99743854       4.11710740      -0.18889078       0.27846571      -0.12188607
O       11.18230234       4.21667153       4.66007008       0.08563232      -0.24736030      -0.02468118
O       11.66600380       6.30879185       4.23904300       0.03567836       0.24626758      -0.03113543
H       12.25643202       7.02861587       3.83971146       0.17186561      -0.35719022      -0.10290528
H       12.95022577       3.64422979       2.73546924       0.11081051       0.30573690       0.53990335
H       13.99039640       4.36136279       4.11052090      -0.11291849      -0.11757478      -0.18439635
H       13.60177540       5.30282812       2.61010697      -0.32909661      -0.30458347       0.64925670
C       -4.81460274      10.64288811       3.29260962       0.40607040       0.70668697       0.16936926
C       13.15338843       9.44481084       3.73931766      -0.44345954      -0.35982107       0.28285887
O       13.24701501       8.34572922       3.15447197       0.04103406       0.12426158       0.23699367
O       12.26702727       9.56240848       4.73967170       0.12690671      -0.44290116      -0.14310209
H       12.05261378      10.50786769       5.03535008       0.24332850       0.44497376       0.22052130
H       -4.65879237      10.46317095       2.23224710       0.29724944       0.23393886      -0.08310641
H       -3.87217226      10.95355233       3.83625096      -0.27418440      -0.62326168      -0.24372445
H       -5.37978308      11.56887764       3.47860024      -0.23365865      -0.11939418      -0.15456954
C       13.45140372       5.60525657      -2.20668313       0.06966465       0.59719947       0.53685745
C       12.59777982       5.20830016      -1.02083868      -0.20777381      -0.01870481      -0.58007231
O       -7.20834163       5.73039201      -0.92795534      -0.24133720       0.07988034       0.37825501
O       13.05244369       4.23107367      -0.21571842       0.55755560       0.12645731      -0.47004923
H       12.29434648       3.75428037       0.27077102      -0.34740831      -0.04232277       0.37048991
H       14.49716780       5.57006718      -1.91057499       0.23583016       0.12211382      -0.10301169
H       13.12634605       6.64944256      -2.50428118       0.30219490      -0.65224338       0.08214139
H       13.32270773       4.90450625      -3.01582649      -0.10783452      -0.20816869      -0.27419779
C       -2.63024392      13.69916485       4.12734497       0.07370782      -0.34094549      -0.15683176
C       -3.25277931      13.65012574       2.76645906       0.12108427       0.15118091       0.15609348
O       -4.18269154      14.59791336       2.56764864      -0.27398247       0.19617929       0.38226034
O       -2.87444000      12.88401420       1.90284995      -0.03517392      -0.42559397      -0.54187849
H       -4.25529286      17.43811027      -2.36214278       0.11494695      -0.30538330      -0.21191936
H       -1.82855589      12.93564715       4.17512486      -0.01709865       0.35354519      -0.10576542
H       -3.32901232      13.33295452       4.88678355      -0.15057014       0.35181409       0.12545502
H       -2.27771250      14.73739274       4.21335763       0.01512217      -0.11023451       0.43152187
C        3.02593205       2.97757232       4.50676657      -0.36738503       0.43412118      -1.45595812
C        1.83711707       2.23122706       3.91760174      -0.08513084       0.29021254      -0.37284562
O        1.34127679       1.19867421       4.65181349       0.32218158       0.37164869      -0.21730735
O        1.32987573       2.61827444       2.84804320       0.09596522      -0.36070539       0.31810302
H       -0.49464796      -1.64150639       5.88277176       0.23507096      -0.01736033      -0.78627621
H        2.73052189       4.04879765       4.52188394       0.05400563      -0.26629174       0.00991089
H        3.93038724       2.92784035       3.81257197      -0.56755905      -0.18660216       0.56241951
H        3.15850435       2.66813023       5.47914436       0.55308245      -0.42780017       1.22826874
C        8.92390701      -3.94135090      -0.87771988      -0.82066425      -0.38157248      -0.75658433
C        7.39121172      -3.83342137      -0.91995487      -0.14969286      -0.12859576       0.61719340
O        6.82848751      -2.85612692      -0.45183451      -0.04474796       0.22502015      -0.01961624
O        6.67049356      -4.89999955      -1.39003729       0.79233036      -0.27061547      -0.06150134
H        5.69191309      -4.71893701      -1.49322993      -0.28031528       0.41098107       0.27308342
H        9.24299858      -3.24709378      -1.64423356       0.18503269       0.06013270      -0.30174378
H        9.31135503      -4.94073718      -1.06372292       0.00336899      -0.05554870      -0.06664170
H        9.30359588      -3.54726364       0.02465233       0.11822672       0.23040313       0.79102329
C        4.38267280       9.22954839      -1.58593704       1.35325645      -0.89219100       0.23315446
C        2.93607453       9.18133640      -1.40551120      -0.53223972       0.13613789       0.50194170
O        2.42515537       9.76560063      -0.45564385      -0.48697018       0.15604034       0.29115311
O        2.19513352       8.37598775      -2.20140734       0.28501185       0.51163826       0.19852604
H        2.83884182       8.06129920      -2.92989524      -0.24831465      -0.37085624      -0.25416904
H        4.73226557       8.29831329      -0.95666313      -0.12370266       0.54950685      -0.83795994
H        4.99103519      10.01347143      17.61782219      -0.55562748       0.05352239      -0.15255924
H        4.68702590       9.16319551      -2.64632523       0.12870211      -0.22533317       0.25245402
C       -1.77645673      -1.69533573       2.38691455       0.42611271      -0.42045696      -0.03328487
C       -0.96476114      -1.20378503       3.56711218      -0.29049768      -0.47132038       0.85073956
O       -1.30704080      -1.57961784       4.78115483      -0.24673307      -0.13326923      -0.47390627
O       -0.01384785      -0.43664807       3.33689806       0.48920302       0.37395187      -0.42648247
H        0.68541523       0.63217911       4.08194767       0.08872634       0.01273032       0.20170719
H       -2.62363181      -2.26173437       2.75765844      -0.07231934      -0.23707284      -0.12710471
H       -1.14834267      -2.24672528       1.58155816      -0.54547455       0.44519735       0.78151988
H       -2.18254720      -0.79672052       1.95272071      -0.08344730       0.20938313      -0.33300472
C       12.18003319       2.41766075       8.04525202       0.74541400       0.65162822       0.36113378
N       12.03923721       1.99565209       9.46245377      -0.05989582       0.23513749       0.45873707
C       13.08956521       1.36168991      10.17500236      -0.73024576       0.42062526      -1.34577383
C       12.55159517       0.80670587      11.25794859      -0.35741248       0.27674748       0.93573955
N       11.23217439       1.23418600      11.35303683       0.65673212       0.31229947      -0.65262493
C       10.93558818       1.97420383      10.27029707       1.57079786      -0.94293345       0.17592192
H       11.24744633       2.22731790       7.59093620      -0.57630236      -0.15399625      -0.49914873
H       13.00845466       1.84724782       7.59477473      -0.23101551      -0.04743717       0.01316979
H       12.46298869       3.50482735       7.88583435      -0.23446280      -0.48528261       0.31739551
H       13.99081720       1.34239271       9.62653264       0.66210650      -0.22892037       0.10389495
H       -5.66764003       0.30770343      12.06022396       0.07390405      -0.31031328       0.27673056
H        9.98837918       2.34783167      10.21412281      -1.24778364       0.68312383      -0.59894510
C       -0.39955981      10.20426113       2.92660333      -0.37511712       0.28745731       0.81036519
N        0.39500848      11.43320017       2.78669747      -0.18702719      -0.41927068      -0.02604198
C        0.10621939      12.54413983       2.02863207       0.01117129       0.35554195       0.20344754
C        0.97238843      13.52629406       2.48920136       0.06869548       0.14112211      -0.47827492
N        1.86356542      13.00368154       3.43887247      -0.41667541      -0.28399961      -0.24490306
C        1.44587899      11.71980002       3.57330189       0.64340549      -0.36970419       1.10274608
H        0.21308297       9.36279719       3.23478680       0.19233487       0.04204405       0.32603898
H       -0.71273046       9.87384664       1.97962902      -0.51835541      -0.08996961      -0.74733722
H       -1.28305983      10.35003385       3.65661412       0.71085716      -0.10868307      -0.61090437
H       -0.71857110      12.56940864       1.31528492       0.20155997       0.02655508       0.21999141
H        0.98881624      14.55504496       2.07313409       0.18356941      -0.38784732       0.29027822
H        1.78848247      10.91700770       4.34045429      -0.20265796       0.96202599      -0.75780691
C        0.30288155       0.37982458      -1.09464381       0.05526795       0.73648335       0.00707356
N        0.26482837      -1.04642709      -0.79812843      -0.84111159      -0.41962736       0.05315163
C       -0.81124256      -1.95579829      -0.74516780       0.26532859       0.18739546      -0.27640612
C       -0.27013883      -3.20764595      -0.84924075      -0.32928697      -0.44507877       0.09328506