640
Lattice="18.700606 0.0 0.0 0.0 18.700606 0.0 0.0 0.0 18.700606" Properties=species:S:1:pos:R:3:momenta:R:3:forces:R:3 energy=-80126.28125 stress="-0.0230568777769804 0.0010783796897158027 -0.0023917430080473423 0.0010783796897158027 -0.026225773617625237 -0.0009442218579351902 -0.0023917430080473423 -0.0009442218579351902 -0.0243516992777586" pbc="T T T"
C        4.44984003      11.17972465      10.38728465      -1.08065068       1.69083676       0.12416806       0.91388744      -2.00986981       1.17199290
C        4.39763882      11.96912421       9.17161626       0.53238820       0.44647341      -0.65909612      -0.44275767       2.83024144      -0.00821453
O        4.08739834      13.21080952       9.21453931      -0.74557367      -0.04125021      -0.19925980       0.36920428      -1.44316924      -0.59583771
O        4.72921838      11.33129942       8.09073182       0.22492659       0.41284363      -0.18711411       0.19571492       0.31869620      -1.13804185
H        5.52858242      11.00402946      10.67254368       0.15805317      -0.11979071      -0.03618003      -0.88367641      -0.12565413      -0.21178922
H        3.93910487      10.21309131      10.21364172       0.10002681      -0.16102643       0.12407570       0.52337015      -0.07496705      -0.05718805
H        3.95740223      11.54765620      11.26032082       0.15025389       0.03524183      -0.09101072      -0.36450055       1.06279993       0.58132029
C       18.34969073      16.36215414       8.22662532       0.77071714       0.13628173      -0.12676478      -1.06090188      -1.38154912      -0.22760224
C       18.24567120      15.55224137       9.58012709       0.20163203      -0.41158175       0.52609707       0.26939154       1.86180830      -1.46273172
O       17.73983732      16.13849899      10.58395416       0.18578548      -0.54162767       0.72849671      -0.70273149       0.85681385       0.60347557
O       18.69869870      14.40104517       9.57659934      -0.87379285      -0.42923180       0.05471622       1.02311802      -1.91634870      -0.21143141
H       18.94792458      15.82702128       7.46754519       0.32509123       0.12440726      -0.20607619      -0.15568103      -0.08373027       0.35153121
H       18.77114603      17.34406965       8.29434637       0.04150650       0.01093625       0.19132467       0.17660987       0.80309367       0.48931625
H       17.31341680      16.46438751       7.80788751      -0.08722201      -0.06464071      -0.15896860       0.79005980       0.05969837       0.43704414
C       18.94013631      15.25513151       4.21067143      -0.96472133      -0.19870772      -0.42550826       1.53321815      -1.92893183      -2.78105569
C       17.61558141      14.71899196       3.78847739      -0.20578653      -0.24554082      -0.86359401       0.30963850      -0.63116848       1.23830462
O       17.10519470      13.63193268       4.44494119      -0.17313595      -0.27025062      -0.20736079       0.34239149      -0.00550604      -0.41149390
O       17.03760579      15.33193808       2.93330591       0.22596253       0.86021985      -0.63074677      -1.70080304       0.71572894      -1.78006816
H       18.90705919      16.30559012       4.22253597      -0.16038888       0.23721630      -0.18985080      -0.19974700       1.48019648       0.09075621
H       19.75954939      14.97119478       3.39621758      -0.07987328      -0.09442939      -0.12483941      -1.68482852       0.34244409       1.47864866
H       19.22172345      14.86234959       5.12674099       0.00296554       0.07356815      -0.04637080       0.81720567      -0.86855257       2.08213043
C        7.40547593       3.70886517      10.60931816       1.10640691      -0.20863454      -0.02184889      -1.72541952      -2.85418415       0.29994464
C        6.51766937       3.30967101       9.41577519      -0.46862202       0.29820595       1.58416254       2.59851837      -2.00159931      -1.08245349
O        6.92056678       2.42923339       8.62119720      -0.31382504       0.96218167       1.78083972      -0.08361012       0.15843898       0.47550941
O        5.39436472       3.89466335       9.15100990       0.27448670      -0.33820407      -0.00029198      -1.18222213       0.82916123       0.29089344
H        6.79288733       3.51937833      11.52780076      -0.01512389       0.27968396       0.00007981       0.58049309       0.15610315      -0.25259691
H        7.53300308       4.72438448      10.51247635      -0.25460669       0.03183715      -0.02228384       0.80024296       2.63502884       0.08551559
H        8.34537923       3.10694046      10.63602147      -0.14047634       0.29723839      -0.05860599      -0.65216804       0.67460734      -0.18741861
C       14.26829390      18.31322069      16.23284972      -0.37242054      -1.09346021       0.15725566      -1.23637795       0.48426124       0.18599057
C       14.41001522      17.16235445      15.29598390      -0.29775022      -1.23909879       0.34907542       0.42152897      -0.35004377       2.10916162
O       13.64435771      -2.58551304      15.46372359       0.19731011       0.67849925       0.29327392      -2.15234995      -0.77875578       1.00933373
O       15.32743100      17.11430822      14.51071585      -1.15989267      -1.01330816      -1.02832315       1.92990577       0.04658392      -2.28472996
H       14.54789540      19.17875430      15.65888144       0.08325842      -0.02230543       0.24110412      -0.17800544       0.73092628      -0.36132407
H       14.93882103      18.37804838      17.11662760       0.21910423       0.03234827       0.15299856      -0.47351447      -0.76079172      -0.27922034
H       13.18055382      18.31060130      16.46801882       0.50245169       0.04186299       0.18233009       0.77630872       0.65880692       0.41236931
C       17.07341152       9.04630499       2.28376801       0.58997653       0.56064504      -0.37430450       1.09363306       0.83135784       0.28525817
C       17.01830441       8.46276242       0.86016132      -0.43588515       0.97118983      -0.84710265       0.03099334       0.33747274       0.38911200
O       16.65596479       7.28055601       0.68315809      -0.69985353       0.76521567      -0.58045677      -0.63095868      -1.60598946       0.37181056
O       17.34518479       9.21675690      18.59982370       0.43806740      -0.49238465      -0.64566243       0.38763595       1.27478290      -0.67389381
H       16.67151811      10.12939135       2.23746409       0.18810539       0.25683738       0.04054147       0.73351693      -1.58250427       0.43507227
H       18.17002593       9.02276711       2.65005168       0.02532008      -0.39333008      -0.01293373      -1.37026167       0.52438003      -0.69066471
H       16.57438915       8.42725793       3.04857632       0.05318277      -0.14932372       0.03996217      -0.39332345       0.33670765      -0.37679273
C       -0.15382420      -1.05210767      16.12774195       0.29201008       0.49254256      -1.16509556       0.75453240       1.38834429       1.41407907
C       -1.02250857      -0.40209324      17.23366975       0.77069998       0.59379601       0.27104301      -0.22120374      -1.06809425      -0.46229279
O       -1.74318779      -1.02288242      18.04124004      -1.34825577       0.39345826      -0.84035978       0.94832408       0.51949739      -1.02430224
O       -0.99871961       0.93251492      17.22946531      -0.42149252      -0.14971676       0.05779991       0.39187288       0.62797856       0.14413816
H        0.66325452      -1.63849713      16.60879350      -0.05417638      -0.22984672      -0.02364214      -0.50523043       0.18289939      -0.48319107
H        0.25161358      -0.26423449      15.46209117       0.24595993       0.19299820       0.29917591       0.23069890      -0.08979523       0.58672178
H       -0.72170342      -1.59790528      15.42777929       0.05314634       0.38546834      -0.27124325      -1.16027546      -1.31910634      -0.48596442
C       13.09064246      12.89692538       7.20744572      -1.11752043      -0.32190693      -0.61414993       1.39270496       0.65974474       2.20267010
C       14.32864621      12.56245836       8.06881004       0.12350863      -1.19203433       0.09769119       2.42773056      -0.67692083      -1.94226110
O       14.23198414      12.55206284       9.36388019       0.93936370      -0.77994191       0.47002410      -1.10112464       0.06271102       1.89942098
O       15.44594908      12.28071146       7.54416837       0.95103719      -0.42966393      -0.88095375      -1.42703581       0.16118616      -0.23001170
H       12.75167897      12.04129592       6.68244043      -0.06195336      -0.19868450      -0.25190458      -0.21451798      -0.88157344      -0.90353155
H       13.31052564      13.75586916       6.59125463       0.09487165       0.03989432      -0.10003154       0.36992323       0.00449320      -0.76879787
H       12.34370245      13.23071169       7.89044134       0.00948025       0.16942632       0.12031478      -0.99925321       0.04767148       0.56447166
C        2.03654776      16.57684699      11.34372589       0.02524424      -1.17883735      -0.04944184      -1.15591002      -0.30822030       0.67617291
C        1.44202720      16.25536854      12.74178584       0.29066725      -0.62669297      -1.13846616      -0.43631318       0.02392927      -0.53872335
O        2.19885794      15.98493910      13.66658193       0.17407103      -0.72112136      -0.62288925      -0.02630167      -0.05196434       0.35055828
O        0.08659237      16.26554507      12.96251832       0.41108477       0.14035114       0.79341729       0.20643562       0.31169289      -1.17129016
H        3.01542271      16.98042281      11.46261155      -0.14263818       0.14405869       0.13696671       0.81705332       0.71564358       0.40643975
H        1.40882274      17.23478627      10.75806401       0.23749054      -0.10622213      -0.06148538      -0.22207804       0.24945095      -0.17831537
H        2.21119888      15.67261059      10.77570679       0.08016620       0.06642944      -0.16360820      -0.36385441      -0.73680758      -0.28597602
C        8.95081189      19.92184388       4.39900208       0.53699520      -0.21793874       0.06224735       1.22943318      -1.98030186      -0.36247027
C        8.23220615      18.68675073       5.01690534       0.28728743      -0.05982966      -0.48821230       0.13290006       0.95835364       0.36252686
O        7.05359190      18.39138033       4.46975879       0.12072190       0.32997829      -0.26247212      -0.26133215      -0.13108313      -0.78761411
O        8.70193872      18.08722517       6.01356129       0.12231491      -0.39150740       0.98679403      -0.69178391       0.39232266      -1.00838947
H        8.99362223      20.74406059       5.17462145       0.06232646      -0.08693449      -0.08897227       0.00252243      -0.57877713      -1.28113937
H        8.53302443      20.13850559       3.36791202       0.28102033      -0.14148731      -0.17220875       0.33492634       0.40097031       1.38861370
H       10.00176051      19.45107968       4.21891834      -0.03831964       0.16557037      -0.21575481      -1.30887747       1.32943881       0.39159536
C       13.91541226       8.84530483       6.67660386       1.20175349       0.27299341       1.51729534       1.75480485      -0.35390013       2.22867250
C       13.78874439       8.57912639       5.25034926       0.91447977       0.34311148      -0.60043197       0.70929742      -0.66572231      -1.60171330
O       12.57432042       8.06845949       4.95804738      -0.50674505      -1.25581326       0.33645144       0.15985930       0.42584193      -0.10338235
O       14.75105354       8.74081527       4.44560855       0.69869512       0.29508663       0.42829306      -1.68410575      -0.30259895       0.94666147
H       13.06255570       8.68575726       7.30771878       0.06178498       0.11869306      -0.08512067      -0.95291340       0.04274631      -0.04092576
H       14.33599281       9.82627198       6.87132645       0.35300481      -0.23628440      -0.05788835       0.05207729       0.69579005      -0.08696473
H       14.69331592       8.19078226       7.17954432      -0.23497178      -0.16951791      -0.10418375      -0.40683615       0.25734153      -0.88383520
C       17.64559922       3.96205498       1.09564596       0.11940791       0.05665486       0.63893593       0.20245647      -1.33198833       1.20694757
C        0.24883382       3.85924908       1.80500828      -0.39015499      -0.57095829      -0.50326736       1.48555005      -1.15350795       0.76436406
O        0.07397823       3.62029593       3.13111879       0.26420128      -1.56805112      -0.02467863      -0.22460949       0.77423096      -0.83089852
O        1.37714901       3.84534200       1.25913952       0.19541614       1.11594696       0.25366403      -0.79530078       0.49104503       0.36280411
H       17.42166453       4.95991401       0.85916868       0.06609333       0.07159798      -0.24132288      -0.42353785       1.67089546      -0.17530900
H       16.92579826       3.52089536       1.75850042      -0.22286666       0.03424460      -0.06877792      -0.96586215       0.19127175       0.51285046
H       17.54299791       3.32137528       0.24398828       0.14035780       0.16515754      -0.08092187       0.66747296      -0.51132989      -0.78477299
C        9.37684100       7.72692153      -1.03826283       0.01271090      -0.03880009      -0.24254788      -1.82330024      -0.05640316      -0.18114108
C        8.97635088       8.89618462      -0.04225786       0.38155599      -0.23109829      -0.23333317       0.62703931      -2.56921530      -1.02042651
O        8.10993874       8.48616644       0.87060053       1.65952188       0.76179654       1.09389292      -0.24717304      -0.43402743       0.80779123
O        9.45803292      10.02410822      -0.07631604      -0.13799376      -0.00820719       0.69918883       0.25002337      -0.02390516      -0.27886039
H        9.97532271       6.94661086      -0.55696278       0.01215530       0.20104615       0.15803759      -0.15011841       0.02037942       0.27311361
H        9.87562738       8.00257327      16.75109640       0.36629125      -0.04085941       0.07106618       0.69675010       0.91537952      -0.29507342
H        8.43088514       7.24548049      -1.48631852      -0.03986973      -0.03503852      -0.08781442       1.07974482       0.39861736       1.09427166
C        2.79097121      14.48490805      -0.96361131      -0.88196502      -0.27192392      -0.51552169       2.98154569      -0.36073601      -1.29590428
C        2.17142236      15.27165007       0.13023230      -0.07974958      -0.23720953       0.38720791       0.85449064      -0.41066343       0.39713591
O        1.87073881      14.61566050       1.14310852      -0.40816005       0.58703441       0.09588846      -1.14960766       0.16264445       0.97578293
O        2.17900076      16.57619727      18.77947096      -0.09569354      -0.76744574      -0.10841317       0.13604996       0.68839169      -1.01263630
H        3.74996546      13.97549804      -0.50089294      -0.00328833      -0.03278773       0.08831634      -1.59421301       0.87956417      -0.73768967
H        3.19786302      15.13254457      -1.79497896       0.07300230       0.06391420       0.00209126      -0.49738225      -0.66318452       0.68565363
H        2.24930406      13.63758789      17.29463248       0.05384715      -0.06546927       0.05547054      -0.40876740       0.31850219       0.31819278
C       10.98839498       5.50683971       6.84167826      -0.65048012      -0.05844596       0.34283456      -2.02429485       2.33525825      -0.79200292
C       10.28363859       5.06241979       5.54604369      -0.04181800       0.34763623      -0.58858827       0.50427967      -0.33444530       1.89681911
O        9.21024900       5.50124274       5.16650515       1.07736309       0.13241392      -0.69507056      -0.04732192       0.02078661      -0.56990898
O       10.90741511       4.03413686       4.93766226       0.04661000      -0.37855336      -0.56835715       0.66859567       0.03011695      -0.25278211
H       11.36456003       4.76046090       7.47415508      -0.17333318       0.05628432       0.03125656       0.73802614      -1.39866948       0.62660336
H       10.28173542       6.11409896       7.45650427       0.06078411      -0.09177649      -0.01422335       0.13193354      -0.43824169      -0.38853258
H       11.73792423       6.24713403       6.58262936      -0.08303954       0.16002519      -0.23757284       0.60960609       0.08304337      -0.14747563
C       10.19142319      14.63640303       6.40511860      -0.06346373       0.36487011      -0.66535508      -0.97997856       1.24383044      -0.04720187
C        9.87226152      14.69180061       4.90411207      -0.74918733      -0.76560985       0.54168848       1.36675823       0.47610316       0.86075568
O        9.32981900      13.52277439       4.47308048      -0.16851809      -0.53051329      -0.28643566       0.29550201       0.92852366      -0.29238099
O       10.16320317      15.70704762       4.23203143      -0.13478682      -0.45516669      -0.58292226      -0.84750271      -1.68780410      -0.05769229
H        9.79962116      15.62089005       6.79235883       0.15714053      -0.11248245      -0.10650874      -0.38479620      -0.94343269      -0.02797528
H       11.22852446      14.80944903       6.68375991      -0.30836004      -0.05724275       0.32828739       0.44052345      -0.39781791      -0.67316842
H        9.80389912      13.76205521       6.95147460       0.03565410       0.07977028      -0.04380342      -0.03166771       0.48373321      -0.42927563
C        7.76156406      12.91091890       8.92939569      -0.58280351      -0.15118076      -0.10398324       0.63070470       1.61505318       0.24847452
C        8.99042792      13.38874070       9.68624693       0.24920403       0.79135884      -0.09110903       1.00188267       0.69146216      -0.20061976
O        8.88419766      13.61294982      10.94522083      -1.37763263      -0.80675349      -0.52781712       0.06414881      -0.34950265      -0.41853482
O       10.09944474      13.60229299       9.00510982       0.72840079      -0.55904570      -0.32437625      -1.53193581      -0.29879534       1.39987421
H        7.99807191      13.00653635       7.90003786      -0.22209933      -0.16226144       0.23975550       0.13146262      -0.07990266      -1.31499648
H        6.90905538      13.59174704       9.11602686       0.16556025      -0.13829865       0.18031330       0.06564928      -0.72498107       0.34155309
H        7.61750294      11.87940096       9.14989835      -0.07980776       0.16640606      -0.05452761      -0.71096283      -0.93415701       0.51700211
C        6.93832694       0.44629038      18.47418888      -0.85370438       1.16430874      -0.39844589       0.84328818      -1.30459654       0.22278637
C        6.69149771      -0.16587454       1.18192969       0.66512080       0.20500323       0.92830924      -0.07262564       1.11845398      -0.73190618
O        6.52572299       0.62518333       2.18010290      -1.05518031       1.44216954      -1.04964382       0.09006330       1.35640788       0.66975725
O        6.58936536      -1.38939268       1.32632995       1.32305775       1.21508770      -0.34291449      -0.22973958      -2.08582067      -0.41073251
H        6.02588657      19.02982354      -0.80417397       0.02384564      -0.15909724       0.04263417      -0.33955112      -0.13263486      -0.21621832
H        7.75379713      -0.12464274      17.90646630      -0.17621616       0.11161384       0.00182124      -0.92688346       0.70760262       0.83116806
H        7.15749599       1.50332915      18.50587836       0.06635882       0.04270371      -0.37895021       0.22571209       0.40836751       0.23531827
C       13.64311882       5.38796361       9.70214793       0.49265093       1.24102450       0.17782121      -1.86238432      -1.20731115       0.54789650
C       14.17334343       5.52920343      11.14069800      -0.00280912       0.12279404      -0.82826387      -0.00949216       0.74718845      -1.34742641
O       14.64013765       6.64283917      11.50127355       1.31206278       0.90769530       0.05666824      -0.06562680      -0.45135680       0.15535420
O       14.05025892       4.49746069      11.92777033       0.07352512      -0.23210870       0.78577668      -0.75241661       0.37871099      -2.18462968
H       12.56684347       5.04959503       9.87461674       0.10838868      -0.03544342      -0.37757232       1.01126981       0.11751364      -0.37668169
H       14.06615344       4.61294999       9.00929053       0.12523607       0.05052334      -0.13284914       0.11254285       0.57948053       0.81348705
H       13.50801874       6.34315175       9.20120044       0.28041479       0.07636561       0.00499920       0.42063725       0.20731282      -0.01553771
C        1.88503350      10.02215844      17.40823200      -0.56041127       0.02019122       0.72355196      -0.04524291      -1.12630606       0.40388793
C        2.53263395      11.06247038      16.54682847      -0.50730275      -0.25382850       0.42121688       0.53924483      -1.21271753       1.20382226
O        1.93792653      11.90025888      15.90593687       0.44370752      -0.04642354      -0.15724618      -0.67175007       0.92777789      -0.97156346
O        3.86391831      10.93688924      16.60513156      -0.32984762       0.37723256       0.07555012       0.67411536       0.54841441      -0.84086907
H        2.56000439       9.13820872      17.52122871      -0.08050699      -0.06596240      -0.20431694      -0.26701427       0.74016804      -0.18952626
H        0.96856868       9.64868202      16.91444024      -0.24523778       0.00360789      -0.04510521      -0.01655238       0.37400770       0.52988744
H        1.68761758      10.36033298      18.45325113       0.00549595      -0.04822443      -0.07428081      -0.17932501      -0.07287300      -0.93562621
C       18.92470627       1.23720589       6.76235600       0.79952645      -0.46216840      -0.18404978      -1.43751693      -0.28515750      -0.17563264
C       17.59207511       0.47344105       6.41971716      -0.34241161       0.64242894       0.07355472       0.13664478       0.65123618       0.03591831
O       16.74513340       0.21573175       7.43525037       1.10588172      -0.13116979      -0.36553831       0.74039382      -0.12266868      -1.04980624
O       17.30430165       0.21580067       5.23337340       0.32048571      -0.28411740      -0.32844506       0.30337065      -0.12500715       1.05639374
H       19.82922275       0.77331655       6.39269757       0.05638310       0.07323998      -0.17041380       0.11481890      -0.52768159      -0.43873554
H       19.00116784       1.19832083       7.83992984      -0.07295080      -0.05035232      -0.27074553       0.12667100       0.74498606       0.54869300
H       18.87597658       2.24855262       6.29962044       0.00602435      -0.10801516      -0.18507475      -0.00878274      -0.45859700       0.59940392
C       10.22662002       2.04151715       7.50535588      -0.17329551      -0.51493339      -0.64449577      -1.55707622      -1.41321516      -2.23155880
C       11.05207695       2.30055358       8.66712491      -0.44227020       0.47416696      -1.27107462       1.21217084       2.07691979       2.19809389
O       12.18312615       1.53212336       8.85321088      -1.10579673      -0.64609146       0.02059014      -0.69855106       0.70045924      -0.34299099
O       10.81409416       3.21844409       9.48857848       0.82597924      -0.74798049      -0.00787354       0.29101324      -1.35718668      -0.80598152
H       10.70814669       2.27671407       6.50742775      -0.08022490      -0.02255296       0.13970061      -0.10774810      -0.25524294       1.16634881
H        9.17694711       2.48816805       7.44864673      -0.08222587       0.04077527       0.11018960       1.36567879      -0.30529073       0.79665887
H       10.10430624       0.92326822       7.54525921       0.08967310       0.45789715       0.01097256      -0.20798966       0.70305538      -0.57030338
C        2.90390992      11.54498211       1.68352354       0.55247948       0.51516490      -0.37258206      -0.29323852       2.37882113       0.02209399
C        3.89839104      11.15826862       2.69135595      -0.46688109       1.03867891       0.21138961       0.71785361      -1.24050176       1.30250919
O        3.54319972      10.91213451       3.86745246       0.09812197      -1.32596927       0.70413269       0.79394889       0.55764723      -0.85150725
O        5.15619467      10.94658652       2.21081614      -0.64905571       0.33531772       1.46638467      -0.49674904      -0.12467359       0.68868935
H        2.13238682      10.82330564       1.73656332       0.04573588       0.08724513      -0.07029882      -1.05582047      -1.05036175      -0.23204237
H        3.28283324      11.69785715       0.68705467       0.01851420      -0.05034016       0.05610011       0.37825584      -0.35152578      -0.50924289
H        2.40039319      12.51987662       1.94433002       0.00798304       0.40795878       0.24204618       0.55059266      -0.60219049       0.02800195
C       10.05041865       2.49346603       0.84279368       0.15345038      -0.39624028      -0.73181461      -0.28128070      -2.63728118       0.04560983
C       10.59173317       2.31384362      -0.58035234      -0.06373781       0.03034152      -0.77202086      -2.11211348      -0.55385393      -0.60156798
O       11.04824056       3.34507985      -1.09060932      -0.83657055       0.03488747       0.53606555       0.88945609      -0.02452600      -0.61424863
O       10.29438699       1.16296258      -1.27273833      -0.24197040      -0.57774100       0.36671870       0.73345500       2.40758252       1.18359435
H        9.43018548      22.05818226       0.91214907      -0.20947986       0.21886343      -0.10980091      -0.34439430       1.08825970      -0.08909667
H       10.93090108       2.59138671       1.50031297       0.27212227       0.17369973      -0.51058449      -0.46551132      -0.22459850       0.23941877
H        9.33078228       1.65323535       1.12862295      -0.28730355      -0.08584329       0.15210640       1.29649687       1.22036862      -0.02051148
C       11.00663163      11.33738448      15.44984690      -1.24817883       0.94753981      -0.63506834       0.97675174       0.34786293       0.16436878
C       12.41954377      11.87723668      15.49464309       0.05164934       0.28725095      -0.72996966       0.00276709      -0.13170260       2.93709373
O       12.92114121      11.85141734      16.67183744      -0.54927101      -0.26294681       1.16125026       0.43153504      -0.12129984       0.10777688
O       13.03214048      12.35167035      14.49818112      -0.57909718       0.36047240       0.37024658      -1.96912754       0.01167582      -1.89670444
H       11.13529887      10.32965091      14.98161037       0.06260792      -0.06534447       0.06521281      -0.72915125       0.54080105       0.51986998
H       10.49065628      12.04159804      14.80530686      -0.10890414      -0.01931032      -0.22310012      -0.70104027      -0.28674662      -0.32648504
H       10.62979346      11.36764819      16.51757169       0.23268462       0.18208551       0.14789662       0.25151426      -0.52825391      -1.31576228
C        1.66150172       8.53689229       8.12679462       0.70051097      -0.16034154       0.46368284      -0.60342658      -0.34047326      -0.55339509
C        1.62722390       7.87256144       6.70998508      -0.04403727      -0.35027030      -0.14626958       1.40509415       0.46915662       2.27481890
O        2.80462575       8.06437644       6.09191717       0.70384802       0.39409482      -0.12649210      -0.20423174       1.28770590       2.82819366
O        0.73531335       7.14741812       6.31227020       0.30977973       0.40291415      -0.97297673      -0.91389817      -0.12585382      -0.38068932
H        2.07065022       7.87136858       8.87274882       0.07553864      -0.25147484      -0.03486100       0.14985573      -0.67804849       0.05346818
H        0.68940213       8.80830834       8.51851529       0.07370484       0.11219672       0.07265448      -0.66255355      -0.03567450      -0.25480047
H        2.27597670       9.40906448       8.22394774      -0.15196933       0.12171861       0.31052509       0.62502706       0.69927907      -0.61600900
C        3.41538865       1.07547556      10.14030228      -0.61152608      -0.13677584      -0.64077070       0.03905642       1.21132183      -1.03993237
C        2.36812254       2.06629331      10.54277249       0.86305410       0.22495839      -0.53214167       0.21161354      -0.60426444       0.47133654
O        2.19832268       3.02661775       9.64671326       0.81493208       0.57276179       0.29004398      -1.03930736       0.48841113       0.14285791
O        1.77424866       1.96009155      11.63139704      -0.08211154       0.61047090       0.34449251      -0.33443820       0.09045404      -0.38707691
H        4.36430988       1.57142295      10.31373878      -0.17401460       0.07153665       0.10815824       0.69212270       0.03782701       0.01821795
H        3.36005129       0.86849337       9.06578566       0.45183553      -0.35789454       0.04258240       0.01085822      -0.19531579       0.03045113
H        3.35348865       0.21914997      10.74671822       0.26423828       0.20800297      -0.15628185      -0.04439108      -1.22227240       0.69790888