640
Lattice="19.152215 0.0 0.0 0.0 19.152215 0.0 0.0 0.0 19.152215" Properties=species:S:1:pos:R:3:momenta:R:3:forces:R:3 energy=-80135.703125 stress="-0.018631642684340477 -0.0014825586695224047 0.0016252873465418816 -0.0014825586695224047 -0.01859438605606556 -0.0011699906317517161 0.0016252873465418816 -0.0011699906317517161 -0.016601581126451492" pbc="T T T"
C        3.05245544       0.70797479      11.17030549      -0.56743420       0.70752069       0.09952707      -0.31665057       1.58314610       0.66883779
C        3.62491121       1.81314345      10.31632574      -0.34771798      -0.55666202      -1.21451309      -0.27074683       3.16954875       0.00991094
O        3.54171738       3.09250158      10.60398412       0.55913686       0.54954753      -0.35229695       0.15388502      -3.39721155      -0.38305569
O        4.21888055       1.37211391       9.23677591       0.46091230      -0.27482344       0.67752497       0.51789820       0.50747907       0.02858174
H        2.37069425       1.13435243      11.90703455      -0.05801249       0.40390452       0.18086739      -0.07442585       0.09215305       0.08319011
H        3.86897346       0.28078579      11.71608614       0.05602447      -0.28244428       0.07901013       0.69901210      -0.62633753       0.47767687
H        2.53784788      -0.05867502      10.63904213      -0.09143212      -0.10618122       0.09151460      -0.24241430      -0.77774775      -0.80345404
C       14.20913179      14.14666757      10.23159069       0.61521433      -0.72447372       0.66575642      -0.82124090       0.53913003      -1.22435474
C       13.01718605      13.40746078      10.90912410       0.21328804       0.44447849      -1.10218512       0.69507360       0.18110210       1.95675075
O       13.01149480      13.18782741      12.15650485      -0.29771090      -0.44863950       0.04641788       0.36739677       0.22244403      -1.21044874
O       11.99590291      13.09126275      10.15705099      -1.29672684       0.69607708      -0.32135754       0.00840116      -0.16749212      -1.01401806
H       14.73750229      14.80174463      10.95793581       0.02077661      -0.00437156      -0.19194357      -0.20604476      -0.63763559      -0.17896613
H       13.78077197      14.85373536       9.43180592      -0.34796886       0.05758085      -0.01242371       0.38764653      -0.79910934       0.96366960
H       14.93147490      13.49390255       9.65308700       0.19312996       0.14446138      -0.07950513      -0.72011173       0.29989213       0.86762333
C        9.53110205      15.89790149       8.63264223      -0.51960968       0.35921765      -0.78371918       0.00755563      -0.74786818      -1.04310071
C       10.00173508      17.33514243       8.67566584      -0.48225731      -0.31074852       0.90562937      -0.43907237       0.86462939      -0.56503248
O        9.11752520      -0.80854305       8.60170693       2.08916044      -0.54296371       0.58466986      -1.01280260      -1.70608449      -0.06879240
O       11.20755242      17.55923246       8.63272535      -0.31527419       1.06779543      -0.12513748       1.24397755       0.14738351       0.41399318
H        9.11827341      15.59816956       7.64536448       0.15723181       0.11144586       0.01678335       0.43145818       0.52848428      -0.06658348
H        8.70527471      15.55059195       9.21610187       0.11693351       0.11426625      -0.08432003      -0.60949373       0.55327833       1.19913745
H       10.36579926      15.19366217       8.79797356      -0.07602523       0.14507341       0.25157498      -0.04002798       0.48709047       0.09040088
C       20.50915743      22.10016586      16.64617957       0.19392840      -0.52954201       0.72058220       0.79016924       0.97309464      -0.30814987
C        2.10423531      21.03416963      17.41588416      -0.25325858       0.85984340       0.67064427      -1.12630892      -0.82952404      -0.30654782
O        1.58903095      19.82505022      -2.00121452      -0.82218354      -0.00896907       0.96471367       0.92013645      -0.45135725       1.31602573
O        3.03696793      21.24337754      18.21676863      -0.60505535       0.00036845      -0.23591236      -0.13461900       0.01426899      -0.29659495
H       20.19111400      21.70626860      15.65330274      -0.14480902       0.09108522       0.07707182       0.47727662       0.26423928       0.38536611
H       21.30444852      22.93049070      -2.59452162       0.09823552       0.13181581      -0.24377039      -1.88060749      -0.54787576      -0.06445023
H       19.51462356      22.33957024      17.14099471      -0.27854485      -0.10656848       0.11201231       1.34800601       0.29390967      -0.09732173
C        9.54550598       2.77367066       4.19008719      -0.05803614       0.31610604       0.16541653       1.98978114       0.20271713      -2.36196446
C        8.71659358       3.07499726       2.91674761      -0.86587368      -1.05038824       0.44321261       1.34327269      -0.61550677      -0.75478357
O        8.95358241       3.94356843       2.07256235      -0.85734528       0.95010359      -0.66192314      -0.23486528      -0.46583563       1.06861627
O        7.71896865       2.18627535       2.69260287       0.96059986      -0.48050434      -0.27190737      -0.71638018       0.23447329      -0.35131872
H        8.94713469       3.22010874       4.91116162      -0.00949293      -0.01845684      -0.32477858      -1.01443601       0.53923631       2.30204654
H       10.52797116       3.34998408       4.13123959      -0.08956139       0.21728154      -0.06746722      -1.16578746      -0.61349803      -0.00455705
H        9.75955193       1.68861437       4.36096051       0.01109706       0.16039808       0.02400667      -0.55710554       0.89096904      -0.18395372
C        7.44313363      14.50934400      -2.28814408       0.12065750       0.71219124       0.27947544       0.41867641       0.27786836      -0.98476565
C        6.54243102      13.36402817      -2.59928917      -0.50676255       0.46032587      -1.18676205       0.45632201      -2.43049288       0.45575127
O        6.53992562      12.74738201      -3.66113580      -0.67604336       0.50238575      -0.06685249      -0.43716240       0.77304316      -0.77394730
O        6.00399074      12.78926778      -1.48743791       0.86493431      -0.04314702       0.84539501      -0.06593689       1.53858864       0.76946735
H        7.15644541      14.92787055      -1.34420120       0.17478746      -0.30461186       0.09250214       0.00471960       0.54914510       0.74789691
H        7.46931471      15.27711443      -3.09059816       0.01237239      -0.10344204      -0.23597361      -0.24805628      -0.30644441       0.34394270
H        8.46219894      14.07370084      -2.23591474       0.25486206       0.16224815      -0.21989126      -0.19162065       0.27841151       0.19807622
C       16.38217985      24.28677895      15.21499119       0.63377184       0.52981130       1.34705268      -0.14950459      -0.09299421      -0.43288499
C       16.10774653      23.00498668      14.45591269      -1.29220342      -0.27659032      -0.34026285      -2.30603743       1.40810454      -1.18775821
O       14.99769037      23.13539582      13.66971957       1.25872769       0.15083341       0.79184694       0.28793192      -1.19005728      -0.08056086
O       16.74721269      21.97565378      14.50498968       0.28981761      -0.19777748      -0.13397628       1.25155675      -1.35485077       0.50350881
H       17.33147600       5.00588765      15.72567967       0.17329468      -0.04943662       0.16515565       0.18799053       0.21870902       0.22574998
H       15.56745023      24.49320799      15.91237758       0.08466312       0.10250195       0.04362144      -0.16775581      -0.09794746       0.38622475
H       16.36659799      25.16900274      14.54965459      -0.08868414      -0.02196163      -0.03374742       0.33008164      -0.20737115      -0.05424769
C        5.79454085      12.45690192       7.80371315      -0.07839391       0.64336912      -0.02313414      -1.78123033       1.64928126      -0.21938476
C        6.60528492      13.74706347       7.79049705      -0.12197040      -0.17650204      -0.27003775       1.19819248       0.52467382       0.49067116
O        7.37766277      14.09552211       6.69650153      -1.29510617      -1.83360486      -0.55940888      -2.31761122      -1.45450640      -0.11985134
O        6.67307128      14.42367138       8.83230029       0.17074310      -0.47333192       1.40545510       0.00110267      -0.21754420      -0.68567663
H        6.27038109      11.62240134       7.35989759      -0.49379843       0.12418030      -0.04700400       0.80197877      -1.00656676      -0.55716079
H        4.81399545      12.60175565       7.23903656      -0.12872519      -0.39280528       0.17931187       1.02092206       0.01993515       0.55210620
H        5.53507220      12.28896800       8.85487415       0.16485155       0.51910847       0.05575440      -0.00930206      -0.27342251      -0.10602811
C       20.16722466       8.02646066      12.53378687       0.13118606      -0.61258698       0.44321726       2.24376059      -1.57640266       1.09758258
C       18.86480250       8.29208906      13.13163592       0.87257409      -0.18756139      -1.03476605      -0.04501867       0.01458579      -0.64815009
O       17.89745365       8.03014686      12.23293916      -0.16789856      -1.05598083       1.20324481      -1.56905055       0.01807094       0.32527220
O       18.71715694       8.69883256      14.27212654       0.33781604       0.73957114       1.56601584      -0.72891974       0.32297808       0.81787020
H       20.22895393       6.91999864      12.35641441      -0.48996823       0.20476497       0.39226454       0.08197382       0.60131854       0.25564331
H       20.99036811       8.25106400      13.28491484       0.10026328      -0.04994752       0.18867184      -0.89699674      -0.15328306      -1.05685282
H       20.32373647       8.47192641      11.57125660       0.08261790      -0.20831015      -0.13733955       0.01431892       0.63074136      -0.57496440
C        0.96862138      14.27291339       4.61963687       0.30568975       0.37182867       0.24390363       0.47456309       0.72213978      -1.40873814
C        2.05269174      15.01134869       5.24093660      -1.30628386      -0.11518243       0.42887469       1.56756759      -0.05149812       0.98853523
O        2.86905934      14.54685406       6.06534462       0.37351843      -0.59974596       0.56048374      -0.88146085       0.38135505      -0.64467692
O        2.12128726      -2.87834988       4.76842265       0.01565092      -0.38328944       0.93396797      -0.27093649      -0.15949976       0.08168042
H       19.77889555      -5.61912858       5.23658837       0.28579152       0.07843219       0.07134919      -0.99588102      -2.15143919       1.89438200
H        1.40122412      13.75481292       3.75394649       0.22648349      -0.07081585       0.05715202      -0.48527038       0.22785157      -0.41325116
H        0.15585286      -4.19372898       4.43191219       0.06392602      -0.20602997      -0.02734970      -0.30789337      -0.08046950      -0.70647776
C       16.39518532       7.40581811       9.20202895      -0.03888002      -0.51888892      -0.65406580      -0.41561246      -0.32511351      -1.83382344
C       14.97006813       6.94825915       9.33535788       0.70497184       0.75966586      -0.18839128       0.77075160       0.70138121       0.07068563
O       -4.39560107       5.65353385       9.38185592       0.53513724       0.23094197      -0.24997962       0.23509347      -1.31476557       0.27015102
O       14.04020620       7.75374664       9.36847505       0.30128623       0.47875404       0.44039752      -0.60584217       0.15281785      -0.08095156
H       -2.02493975       6.83095578       9.70089076       0.24533781      -0.05747216       0.16170227       0.80118096      -1.21810269       0.68574560
H       16.48463054       8.36337843       9.65350332      -0.10737320      -0.19747368      -0.16860795       0.02569097       1.33806252      -0.04017969
H       16.65492159       7.35722435       8.09953448       0.13754086       0.01794086      -0.13814894       0.00106549       0.56815338       0.88652974
C       20.25236018      13.00626394      -0.61760719      -1.57600724      -0.15302948      -0.14853460       0.21029842      -0.43940127      -1.25213099
C       21.02358610      12.39990870       0.51372908       0.47749058      -0.82012680       0.77042588      -0.06478110       0.42184094       1.26524866
O       22.00100529      11.45961416       0.28997303      -0.46973194      -1.16892986       0.48919239      -1.32715273       0.95578688       1.55876887
O       20.74841906      12.74487442       1.68755439       0.59365614      -0.54591461      -0.60770866       0.80388391      -0.76397800      -1.33077121
H       19.20512119      12.78449948      -0.46081139       0.09891348      -0.31140602       0.39184495      -0.67513663       0.13033001       0.44383463
H       20.43471661      12.46736137      -1.56341552      -0.07747682       0.12798440      -0.04671746       0.38624573       0.27955735       0.01549113
H       20.37071693      14.10477692      -0.79950815       0.00307095       0.12391566      -0.18129899       0.22534299      -0.77617401       0.37614483
C       12.01599863       5.44009851       7.49666791       0.21009888       0.08177139      -0.41219057       1.85306942       0.85390514      -1.58744788
C       10.79881460       5.52321502       6.73666983       0.22613061      -0.35917583      -0.88752439      -3.20100713       1.84263301      -0.11673345
O        9.66402673       5.38916236       7.23196759       0.15557722       1.01321113       0.15623498       1.04217052      -0.73982596      -0.19427094
O       10.86049964       6.05704045       5.49631676      -1.37587286       0.91477708       0.96830897       0.70988244       0.57609284      -0.73317379
H       11.92719065       4.67220587       8.17457069       0.21081029      -0.06860114       0.12466969       0.02712697      -1.95835328       1.87723887
H       12.17568046       6.37327489       8.04178449       0.13804953      -0.04861993      -0.11443986       0.26793045       0.18134475       0.05862661
H       12.84490513       5.26118134       6.78134123      -0.09589425       0.46105704      -0.04897432       0.01597379       0.09912947       0.66448492
C       11.95944952      15.11849686       6.28908024       0.93774514       1.07335428       0.56283983       1.67735684       0.73242980       1.59010661
C       13.00999456      15.76828791       5.38158225      -0.46754414      -0.86103007      -1.13430761       0.04303515       2.42028904      -0.12315822
O       14.05575504      16.42169124       5.70192419       0.01678271      -0.79906854       0.18353973      -1.94541574      -2.30699444      -0.06146151
O       12.49564673      15.86775561       4.13465216      -0.96848943      -0.92833495      -0.88807016       0.68727100      -0.44428897       0.01499438
H       11.31290705      14.38924897       5.83072586       0.09140013      -0.28015443      -0.10088173      -0.01447043      -0.37291038      -0.50813532
H       11.31987479      15.94833673       6.67870518      -0.10986384       0.13845847       0.11419029       0.48809490      -0.42732418      -0.04284973
H       12.51121664      14.68219621       7.16356860      -0.25151296       0.03487910       0.03127903      -0.60436451       0.17257853      -0.50644493
C       26.48936367      16.46939437      12.77938096      -0.22103269       0.83341639       0.57573148      -0.56951523      -0.39401054       1.28302026
C        8.45368658      17.48122568      12.88995753      -0.63128264       0.64835858      -0.00579418       0.18013382      -0.10117120      -0.24550870
O        8.18146252      18.67786943      13.23624500       0.88371260       0.20656811       0.48865196      -0.13016351      -0.07216263      -0.15310179
O        9.63909912      17.04259860      12.65474076      -0.00848309      -1.30246806       0.06575012       0.16285476       0.58916795      -0.13699079
H       25.61432439      17.06005508      13.11196972      -0.09372533       0.16454762      -0.10279311      -0.17125472      -0.93147051       0.28238225
H       26.71183460      15.51358740      13.41229255      -0.12578902      -0.01608299      -0.06422251      -0.48852634       1.74825823      -1.00924218
H       26.25640192      16.17561410      11.75210039       0.25297702      -0.03650330      -0.23827095       0.35804820      -0.20429075      -0.30321157
C       -1.34095906       8.42295435       3.36043467       0.38346625       0.17722203       0.72376456       2.53898716      -0.68447417       0.61992878
C       -0.59655335       7.81959155       4.64212269       0.65786687      -0.04391493       0.34196321      -1.87278557       0.42082655      -0.13280392
O       -1.22413312       7.92106211       5.74518328       0.22152436       0.65171991      -0.26807790       0.50093377      -0.19585241      -0.67536783
O        0.54606823       7.23772553       4.48850167       0.49756575       0.64362797      -0.04682990      -0.10456109      -0.15341055       0.00883502
H       -2.01380115       7.70959276       2.91049809      -0.31175546      -0.06856814       0.21992830       0.15208809      -0.63003826      -0.52963519
H       -0.59042864       8.90813545       2.68160143      -0.19709033      -0.09099199      -0.04481912      -0.85890579      -0.82465219       0.46141583
H       -1.98729244       9.15782393       3.72764646       0.24700163      -0.03050753      -0.09614225      -0.99287522       1.59671283       0.71161348
C       17.53939741      12.32258228       2.60731338       0.09322842      -0.06599961      -0.81308364      -1.21878684      -1.63126326       0.55996245
C       17.37008695      12.21780757       4.11137955      -0.22777240      -0.65360271      -0.09233661       0.12452372       1.45841944       1.06031346
O       16.42492827      13.13462575       4.61918365      -0.13685180      -0.61289993       0.20274411       1.07464480      -1.39229035      -0.18537664
O       18.12795672      11.57324034       4.84845108      -1.15226718      -0.49610512      -0.08500601      -0.82647538       0.11266273      -0.48738515
H       18.54794962      12.62739569       2.44364483      -0.19926092       0.00622443       0.33084695       0.87254798       0.52361560      -0.38215846
H       -2.36060174      12.97941070       2.17283836      -0.00687591       0.08139407       0.04762424       0.02383567       0.19093916      -0.10450301
H       17.42476084      11.31682798       2.11124596      -0.04979521      -0.18836426      -0.04364340      -0.02983998       0.75385588       0.53856170
C        3.56710039       8.79775972      17.08634053      -0.14759980       0.92846902      -0.72868479      -1.14902949      -1.28883505       0.62568414
C        4.48479710       9.91298770      17.41829651      -0.20543719       1.58657105       0.72512236       2.03029728       0.65345728       0.11692828
O        4.04923131      11.13402276      17.21607291       0.31134191      -0.24440315       0.81791044       0.10260612      -0.21271825       0.24793819
O        5.66980366       9.66314496      17.85016855      -0.78329292      -1.10055389       0.03003842      -1.61573195       0.20527592      -0.48450965
H        2.87733301       8.62758886      17.96151319       0.15855288       0.07969511      -0.10268243       0.57038939       0.04131880      -0.41032845
H        4.17780488       7.87574013      16.98162145       0.03794639      -0.09972672       0.07927193      -0.61207050       0.27827829      -0.22652933
H        2.85005147       8.96703759      16.25285916       0.07851093      -0.06933595      -0.13597799       0.78363717      -0.02260781       0.18989092
C       11.13267208       0.31246367      20.69250537       0.43216683       0.10147207      -0.92586875       1.47816277      -0.08787132       0.79591596
C       12.25618599       1.36847456      20.87574324      -0.01923344       0.46141674      -0.83168972      -1.95103085      -1.75824416       0.22641490
O       12.29384353       2.21614412      19.98550568      -0.25099996      -0.24492046       0.33324264       1.38363671       1.17688322      -0.03250453
O       12.93206994       1.23311420      22.00817809       0.01446325       0.35529999      -0.69559580       0.79288834       1.32859766      -1.25404024
H       10.25745679       0.79948852      21.09302968      -0.17784292       0.15409085      -0.23918412      -0.90194964      -0.00018117      -0.15694135
H       11.33117485      -0.58502432      21.29041375       0.05021537       0.07354657       0.04157702      -0.04146244      -0.05964676      -0.01558252
H       11.06293351       0.08291216      19.63462225      -0.30036653       0.01380339       0.08883522      -0.42389640      -0.02143011      -0.25541782
C       -4.67577526      12.63984765      18.87018060      -0.18735231       0.04839273       0.09171109      -1.16364825      -0.93791252       1.00392771
C       -3.82690864      11.42214501      18.74204308      -0.03286069      -0.40766368       0.43221188       0.86984843       1.25156116      -0.89741081
O       -4.18570074      10.27890865      18.53373830       0.18108362       0.81155285      -0.24987192      -1.31125724      -1.40860319       0.06971610
O       -2.55737040      11.75898805      18.69641696       1.07946659      -0.50668820      -1.50034153       1.49810290      -0.36064053       0.05765744
H       -5.58257405      12.30906211      19.39875220       0.02576746       0.13672724      -0.04737583       0.03760441       0.36728224       0.15030453
H       -4.98233674      12.96689532      17.89656125      -0.19132236      -0.11314346       0.17810299      -0.10710754       0.38325706      -0.83436733
H       -4.13688819      13.42188361      19.38511521      -0.10293693      -0.11054622       0.08700634      -0.01094763       0.32317835       0.16562198
C        9.15962702       7.92871832      22.55413061      -0.23657027      -0.97583097       0.41172892       0.80580401       0.83587903       0.08925793
C        7.73023660       8.23323792      22.91363803      -0.92964692      -0.07029989      -0.32853785      -1.14808464      -0.13820319       1.90416813
O        6.72492703       7.77455927      22.30147915       0.65800065      -0.17960196       0.40486107       1.42523432       0.86251807       0.66831481
O        7.59307265       8.97341414      24.06400098       1.27050365       0.18173825       0.68499822       0.07439339      -1.07844257      -1.30409992
H        9.47287317       8.75169296      21.88509060       0.11423003       0.05807574      -0.05159208       0.24284138      -0.15004009      -0.11445457
H        9.28620315       7.00073555      22.03000276       0.31651619       0.12819904       0.14273429      -0.27815226      -0.60780942      -0.54803324
H        9.88839060       7.91545291      23.39734771      -0.04775251      -0.13298684       0.23608910      -0.82840443       0.21977574      -0.38289800
C       21.79547664      14.01011651       9.47803326       0.08654787       0.03043791      -0.42994522       0.51000327       1.27395892      -0.21483314
C       21.20027060      15.17143225      10.21449874       0.51719396       0.58841461      -0.25897396       0.61123586      -0.02307224      -0.09587330
O       21.73031876      16.28267437      10.23323902      -0.71455751      -0.82780889       0.60895256       0.08894867       0.44730139      -0.09056151
O       20.10811531      14.88928784      10.89125363      -0.69165330       0.01172782      -0.09555772      -1.63250601       0.72949582       1.14505303
H       22.74741634      13.91007102      10.05268469       0.17853656      -0.02652282       0.48333056      -0.46404591      -1.02314711      -0.68053961
H       22.03708656      14.48642263       8.52139513       0.22424204       0.14954496      -0.30416487       0.42130244      -0.26769796      -0.27338991
H       21.14229730      13.16152196       9.22655996      -0.11841129       0.17781582      -0.63262061       0.39435828      -0.05656758       0.78157359
C       11.07033138      12.78899456      22.66859165       0.67229445       0.51612743       0.48838751       1.15992284       0.05616648      -0.74897289
C       11.35758947      12.26766213      21.25573481      -1.11254470       0.13188275       0.18430486      -1.08987725       1.43883193       0.50417602
O       12.13214924      11.35899534      21.05454705       0.13647894      -0.03378328       0.36608578       0.78284943      -1.26916027      -0.35357749
O       10.67677470      12.92345710      20.28419202       1.04631280      -0.29158592      -0.01653621      -0.25305367      -0.25368881       0.10041405
H       10.68156560      12.01818511      23.29531699       0.28110455       0.12089734       0.15689638      -0.61133134      -0.81235588       0.33185172
H       10.46055244      13.67375602      22.67821074      -0.11010438       0.05613698      -0.08220634      -0.44050682       0.45153540      -0.04059552
H       12.03473086      13.01927839      23.13104871      -0.10716142      -0.08540207      -0.03008880       0.24629518       0.24713942      -0.07337155
C        3.95605146      20.92673733      14.57172699      -0.16504232      -1.12225438       0.75524061       0.05605017       0.63086212      -0.01409416
C        5.41005647      20.68872889      14.41554896      -1.04076236       0.02316391       0.56720975       0.13269019       1.00114727      -0.16115949
O        6.20796469      21.60969983      14.59859140       0.18949765      -0.87185590       0.43200794       0.62233180      -0.25620770      -0.15996709
O        5.69064310      19.45665014      14.07493891      -0.71906457       0.10980885       0.60835124       0.05192816      -2.18894148      -0.62658590
H        3.71784865      21.85685651      14.07982048       0.23794882      -0.33561599      -0.03819622      -0.30840090       0.37020010      -0.39851564
H        3.77692896      21.10314657      15.60528761      -0.09542021      -0.13881864      -0.21275017      -0.04162598       0.35542223       1.43800807
H        3.25520653      20.16412254      14.33300693       0.08776615       0.00819281      -0.05463008      -0.28719300      -1.04765534      -0.76629806
C        6.77835862       0.96850821      17.58487459       0.32305517      -1.31319317      -0.04554990      -0.40139982      -1.34886670      -0.29890615
C        7.18687944      -0.46014991      17.91707261      -0.78704425       0.56901576      -0.51758202       0.37992725      -0.77889419      -1.69386053
O        8.42984897      -0.83941928      17.57977978       0.49510504      -0.15602083      -0.28712298       0.42268753      -0.18193376       0.34845635
O        6.43119842      -1.37707923      18.26468470       0.67305980      -0.17999651       0.15629762      -0.44554752       0.72843432       0.71223140
H        6.50593746       1.07136829      16.51146606       0.19689190      -0.20226857      -0.12832118       0.32551283      -0.23842107       0.44372088
H        7.51881002       1.70055254      17.82011729      -0.01743089      -0.09687608       0.12000550       0.65262419       0.54885280       0.35706758
H        5.86962086       1.09820250      18.13496356      -0.23226064      -0.13403307      -0.00113086      -0.79442132       0.67270970       0.49715254
C       -1.54697689      17.10988412       4.58818948      -0.76398763       1.20996649       0.38868658      -1.84239709       0.96042037       1.43554223
C       -1.94325652      18.39766511       3.80669077       0.44512649      -0.29352456      -0.53942691       0.57373947      -1.30155301       1.88847005
O       -1.02159591      18.69742855       2.90710364      -0.89775656      -0.40968002       1.07200787      -0.69147754       1.22233808      -1.63464570
O       -2.96119364      19.04975394       4.04180253      -1.02460074       0.36938964       0.04628494       0.12444510      -0.09604168      -0.26203632
H       -1.98417917      17.19853783       5.65902683      -0.12123071       0.21627755      -0.10531977       0.86380255      -0.14576045      -1.62865543
H       -0.50179959      16.82514752       4.58545977       0.03486514      -0.02275429      -0.29192248       0.40023541       0.52412164      -0.04063647
H       -2.09986649      16.29787516       4.12299848       0.15644883      -0.01482643       0.38390311      -0.27557784      -0.40195620      -0.06566969
C       17.06926451       5.24661882       0.94379562       0.15435259       0.29808520      -0.71981123      -1.02724481       0.59301412      -0.41163501
C       18.48362519       4.75817893       1.14886124      -0.15415281       0.52417397       0.45569348      -0.03476310      -0.00772083      -0.83208162
O        0.21931861       5.11540044       0.24316006      -0.59144882       0.17235761       0.99714508      -0.45546266      -1.14547575       0.85809934
O       18.77327825       4.04820381       2.14043704      -0.44146722       1.62760806      -0.77292677      -0.21793380       0.00206542       0.40954828
H       16.29524261       4.44723834       1.06958835      -0.13422546      -0.21535065       0.19713480       0.73820364       0.44605303       0.21057712
H       16.89389770       5.70778934      -0.06178578       0.21129222       0.00042874       0.08600434       0.40457970      -0.25638574       0.63673025
H       16.86845917       6.04492604       1.70305804      -0.01152035       0.03174940       0.02865054      -0.05506188      -0.52516174      -0.35584578