640
Lattice="19.152215 0.0 0.0 0.0 19.152215 0.0 0.0 0.0 19.152215" Properties=species:S:1:pos:R:3:momenta:R:3:forces:R:3 energy=-80135.75 stress="-0.017569050192832947 0.0013736021937802434 0.0003189684939570725 0.0013736021937802434 -0.01846426911652088 -0.000773055013269186 0.0003189684939570725 -0.000773055013269186 -0.011795474216341972" pbc="T T T"
C       14.89084589       6.55711791      16.85530183       0.00338785      -0.06883743       0.30849415       0.52875686       1.93015397      -1.03820515
C       15.28518102       6.92891087      18.26493256       0.06964859       0.04301468       0.55597005       0.15124595      -0.32010853      -0.94670284
O       16.29924194       6.23137599      18.82318076      -1.42763845       0.22280504      -0.83110245      -0.24363986      -0.18646720       0.20594943
O       14.73236507       7.83692528      18.86484057       0.43598861      -0.73406984       0.45459498      -0.20297924       0.58278173       0.56437588
H       16.60768116       5.48995399      18.17813453      -0.08714519      -0.21377396      -0.41396063       0.13679865       0.24698412      -0.51256388
H       13.93283270       7.07029732      16.56569310      -0.15814357      -0.06926987       0.06128354       0.77808851      -0.54444599       0.27020684
H       14.88412433       5.50563391      16.77452344      -0.24099554      -0.26207886       0.13537169      -0.67841494      -1.34487104      -0.09005408
H       15.74055095       6.81749020      16.12162818       0.38589693       0.20043698       0.04700877      -1.10337484       0.09314917       1.08454227
C       12.20528906      14.68449864      17.68630225      -0.22085606       0.54929413       0.50900778       3.07489276       2.12866044       1.24271047
C       11.53396863      13.69120657      16.85356718      -1.25963207      -0.68969119       0.92417171      -1.78500712      -1.17997599      -0.57431114
O       10.39715183      14.03134336      16.23430409       0.77741377      -1.20087313      -0.18166080       0.74116343       1.69478583      -0.00022936
O       11.93607127      12.52152142      16.76918336       0.23084149      -0.09484434       0.03076388       0.49532187      -0.20561528      -0.01536876
H       14.60781784      13.33137742       2.56500660      -0.26283544      -0.01752024      -0.05386235       0.40116715      -0.19539997      -0.32711244
H       11.84229305      14.90939294      18.70657547      -0.04537496      -0.02787609      -0.32696850      -0.74308062      -0.46190178      -0.47870430
H       12.39331661      15.69417810      17.24299038       0.05191403       0.16789539       0.13148051      -0.62471414      -0.46446428      -0.18216614
H       13.26617592      14.39057661      17.91142477       0.23047330       0.18919761       0.08271168      -0.58975923      -0.29801214      -0.29980683
C       -1.00704760       7.54067007       9.32850781       1.04125809       0.05373741      -1.02170550      -1.28322148      -2.19611549      -0.59512866
C       -0.86631582       7.52608686       7.80344106      -0.87923895       0.47690550       0.28378504       0.33323476      -0.07645014       1.80138636
O       -1.07664572       6.40138409       7.16958163       0.58258151      -0.23304213       0.06465780      -0.58548212      -1.48268318      -0.22029495
O       -0.50712708       8.52057146       7.18635191       0.59866167      -0.79996989      -0.08797389      -0.01931059       1.13735282      -0.71682823
H        3.75946167      19.63074733       6.64903070       0.10316494      -0.00489621       0.09296136       1.42169511       0.06241369      -0.19505008
H       -0.60578735       8.32644999       9.87430085       0.07505530       0.06048875      -0.36828873       0.62291002       2.42405558       0.28095675
H       -0.51779265       6.72259337       9.84346246       0.04865308       0.00754004      -0.15426010       0.44018388      -1.00997829      -0.30912650
H       -2.05991024       7.36195326       9.62308209      -0.17939843       0.21100235       0.23114448       0.03415439       0.41385761      -0.26016256
C       11.16765519      15.49957124       2.22174683       0.41748179       0.54801610      -0.62350913       0.26554072       1.93824124      -0.27219859
C        9.91988325      14.68748603       2.08676712      -0.00036883      -0.55122333      -0.06086055      -1.93537784       1.35843480       1.29410291
O        8.97301623      14.71527894       2.95318562      -0.17147096      -0.78875521       0.17139140       2.03896832      -0.73445463      -1.61515296
O        9.83840644      14.21073606       0.85212649       0.80856081      -0.00576614      -0.26253052      -1.07049978      -1.83742499      -0.28041315
H        9.10480277      13.43212460       0.64615763      -0.37342324       0.21641961       0.23451397       0.47400278       0.61827785       0.07996762
H       12.07679732      15.08257771       1.76627810       0.25316197      -0.16402441       0.08132570      -0.17815524      -0.41635936       0.51719958
H       11.30884562      -3.23288599       3.24771842       0.01284571      -0.01735748      -0.13998087       0.20298830      -0.59536088      -0.66040248
H       10.98832375      -2.72555401       1.57060572       0.03493571      -0.23875567       0.05754312       0.08873610      -0.81510425       0.71897590
C        9.50210052      17.10689233       6.45207536      -0.39097146       1.36702204      -0.12474030       1.73930788       0.41977179       1.05889261
C       10.26652198      15.82871787       6.78809861       0.30360667       0.39555527      -0.25755696      -0.90459365       0.31354052      -0.72805178
O       10.27956724      14.88543897       5.75094013      -0.47056836      -0.55311119      -0.28894524       0.37062073      -0.06315696       0.81732422
O       10.76381053      15.61325873       7.89020934       0.06464721       0.30682824      -0.05149468       0.02024978      -0.31344193      -1.24676156
H       17.00772857      16.24123855      16.57452423       0.18843669      -0.08234770       0.07605262       0.22375152       0.14945796       0.54465222
H        9.90002547      17.94053171       7.11649823       0.09062254       0.01516170      -0.17501043      -0.24009711      -0.80914748      -0.97368121
H        8.47897075      17.00718129       6.73396518      -0.01133686      -0.05546286       0.11034337      -1.08372700      -0.23006222       0.25048545
H        9.52629282      17.39115684       5.39884854       0.13671345       0.35067479       0.02144671       0.18851063       0.02149804       0.05600742
C        9.44615512      17.68356584      10.63550205       0.49636338      -0.23426638       0.37177925       0.38752139       0.25956118      -0.44564584
C        8.42374142      16.56480822      10.77297723      -0.30992493       0.05204490      -0.03979390       0.26578879       2.20923090      -1.16443050
O        8.95640114      15.45344114      11.19321068      -0.80647069       0.74767950       0.89944229      -2.25640225      -2.24130797       0.41865551
O        7.23654059      16.73257833      10.44186965       0.87104018      -0.14135661       0.38067796       0.67026275      -0.78164327       0.68445760
H        9.93603772      15.31837464      11.20064554      -0.26148987       0.10715633      -0.28337870       1.41670275       0.49593014       0.24444272
H       10.39707085      17.48931740      11.14821600      -0.15140201      -0.36135487       0.04876441      -0.24029151      -0.08693568       0.28548765
H        9.02666793      18.64179366      10.94953339      -0.08821093       0.10594803       0.23959210      -0.08223061       0.12345430      -0.02417653
H        9.75758972      17.76948370       9.57460746       0.02577426       0.01169115       0.22726820      -0.34297153      -0.02639403       0.11981277
C       19.31037971      -3.49084147      -0.33435843       0.42011659       0.16031854       0.11410807       0.40622163       1.89626133       2.07212448
C       18.71180269      -3.42666122      -1.68846453      -1.50914035      -0.25356741      -0.41364775       0.18685338      -0.62538606       1.63987744
O       19.30282590      -3.77550926      -2.68557791      -0.00627967      -0.38696371       0.73478469       0.68493116      -0.25317359      -1.79713833
O       17.46741531      -3.02430236      -1.61647699       0.34681180      -0.85635656      -0.72741304      -1.93396878       0.67250180      -1.34560096
H       15.19312953       1.90134056      -1.50822424      -0.06587476      -0.08607994      -0.11727210      -0.31166083      -0.26712093      -0.43462634
H       19.01838520      -2.47961876       0.18956970      -0.02612781       0.29080319      -0.09574686       0.92046499      -1.79850948      -0.59846866
H       20.38963384      -3.67628794      -0.33292511      -0.06214621       0.48709839       0.14772429       0.09349329       0.52905703      -0.37338939
H       18.96863548      -4.27524092       0.34904578       0.09445123      -0.14927084      -0.07614763      -0.76944911      -0.15217923      -0.24358429
C      -11.20754296      23.73432490       5.90653555       0.76719936       0.43935519       0.15314485       0.41419899       1.23734999       1.20423377
C       -9.70256465      23.95760167       5.80348223      -0.04663365       0.58626092      -0.04918297      -0.30512261      -0.37047750      -0.66560382
O       -8.92128594      23.26918784       6.48778244       1.96219103      -1.24257187      -0.59501205      -0.09659243       0.85372555      -0.59735358
O        9.86876290      24.83996466       4.87874178       0.60982726      -0.30112867      -0.33212873      -0.16081071      -0.10038695       0.35155138
H        8.14230407      11.50361487      -5.08107601      -0.08159108      -0.22410810       0.06413959      -0.40498415      -0.19560510      -0.11218858
H      -11.58099556      23.19625141       5.05524423       0.01432581       0.04078820      -0.04945131      -0.30487937      -0.21762663      -0.65996313
H      -11.66409891      24.76794977       5.93628421       0.19897482       0.12195145       0.13317156      -0.03317492      -1.11796570       0.06122255
H      -11.41381652      23.12341591       6.81881975      -0.06429807       0.10590056       0.38713236       0.03024380       0.74673396      -0.63707662
C        4.82487796      -3.03467588      -5.82804682       0.32461793       0.72352424       0.98849277       0.10923147      -0.05465242      -0.32307801
C        3.44884950      -2.53077516      -6.23782667      -0.29417666       0.28790751       1.03227323       0.98076087       1.60647142      -1.50545502
O        2.70423276      -2.50927596      -5.11681485       1.04374867      -0.61003844      -0.73318967       0.55424899      -0.67899907      -0.49050105
O        3.13586551      17.16432546      -7.35505917      -1.41654976      -1.41623669       0.46343844       0.44894397      -1.77584600       2.51755428
H      -10.07387089      25.42961070       4.34773966      -0.01731778       0.04945441       0.01469588       0.31181306      -0.09187417       0.66941088
H        5.04937483      -2.58186952      -4.85342185      -0.14615318      -0.02599538      -0.09820527      -0.00302894      -0.26387757       0.09812969
H        5.66834639      -2.77518233      -6.48549413       0.16679897      -0.21221680       0.15289203      -0.50579816      -0.00747455      -0.35337758
H        4.77554446      -4.13175147      -5.72740799      -0.18582646      -0.29326479       0.21597119       0.04105400       0.09115529       0.10615142
C       -2.82909871       6.86551401      12.92320644       0.86806656       0.73978774       1.22086422       1.12519526       0.48224223       0.31328309
C       15.33234542       6.26413504      11.95844294      -0.63745806       0.55656718      -0.08320255       1.46435857      -0.82754451       1.42365777
O       14.98530432       7.07418132      11.00591377       0.96133801      -0.43034450      -0.46790585      -0.86939752       0.84330702      -1.02979946
O       -4.10404457       5.05965138      12.03227451       0.75046308       0.41435354       0.04963512      -0.66610938      -0.10993288      -0.15367401
H       25.63179589      -0.75032386       5.17326405      -0.10880680       0.21916141      -0.26814599      -0.40810779      -0.58115989       0.32112554
H       -2.81662107       7.97516017      12.95632298       0.00287156       0.18695490      -0.20693622      -0.42915279      -0.44667006      -0.18390995
H       -1.79612866       6.60102372      12.51647085      -0.06829396      -0.04462961      -0.25801935      -0.93712413       0.00264794       0.71228999
H       -2.96911191       6.47625666      13.95888160       0.08597085      -0.32481016       0.10334005       0.27553123      -0.02644049      -0.70789301
C       25.64093037      20.36004493      17.75409794       0.10032266      -0.03812039      -0.63947933       1.93061543      -1.64510977       2.46428204
C       24.58686335      20.71714337      16.81562326       0.98571595       0.48881429      -1.03604092      -2.19114065      -1.05210447      -3.18153024
O       23.97680151      21.81721980      16.84287430       0.52818110      -0.04622208      -0.65417704       0.63030660      -0.25855517       0.18873200
O       24.29028860      19.73088975      15.91988325       0.86642701      -0.62123384      -0.29451385       0.67179984       1.46089077       1.05739474
H       24.57856930       0.85118939      14.51018997       0.08138402       0.09598904       0.39362755       0.03751381       0.10842430       0.01672453
H       26.39423761      19.58069147      17.41996834      -0.04816775       0.03322236       0.06713640      -1.20840120       0.48159242      -0.25430071
H       25.15400525      19.86193418      18.67458046      -0.03690986       0.40771025      -0.07888174       0.67816216       0.87140977      -0.92689794
H       26.28299466      21.19132444      18.08365834       0.02151553      -0.02579417      -0.15879879      -0.68457645       0.21104683       0.22141229
C        0.39172603      19.89071916      11.74683987       0.59090795       0.12541887       0.68209045       1.62800658      -1.60739291      -0.33592981
C        0.36379921      19.24847588      13.10078561       0.43131475       0.28606356       0.58458628      -0.81642735       1.43056333       1.28134441
O        0.16184226      20.10485138      -5.01724534      -0.14928382      -0.45227677       0.13341497       0.40008998      -0.88444805      -0.56024659
O        0.45717155      18.01906486      -5.98112787      -0.70150965      -1.34113265       0.03540997       0.02914878      -0.83584416       0.68765843
H        1.40169221      14.02386113      10.62186521      -0.07806010       0.20900783      -0.24630075       0.25090533      -0.96663630       0.17903763
H       -0.34476667      19.42546362      11.11440307      -0.09450846      -0.12997625      -0.06122780      -0.47940779      -0.47608453      -0.41965699
H        1.39446046      19.59689151      11.31700093      -0.25375216       0.08212371       0.15837677      -0.73421526       0.46365350       0.08734229
H        0.24037044      20.92714780      11.71335614       0.30568503      -0.06394832       0.03144887       0.07057048       1.68819153       0.21504191
C        9.50284111      11.20879510       6.02873421      -0.68143591       0.62321791       0.94846457       0.26393005       0.83122158      -1.30860579
C        9.40768281       9.84691589       6.74924440      -1.27902383      -0.49475704       0.14781151       2.10363674      -0.29722059      -1.05831289
O        8.36142057       9.60819690       7.38002741      -0.86728219       0.80557877      -0.75616293      -1.21016514      -0.36348975       0.19468650
O       10.44583215       9.04251544       6.72564145       0.04919765       0.16164442       0.42525995      -1.17626536       0.58105350       0.37557158
H        7.57686257      10.85588881       7.37956597       0.13919813       0.03748963       0.05332338      -0.63540679      -0.06132996      -0.15395504
H        9.12062339      12.03824309       6.66650167      -0.26225981       0.22688506       0.30702895       0.53240061      -0.35480791      -0.19753169
H        8.93452868      11.39823903       5.06484943      -0.02324996       0.15277879       0.20464121      -0.18062378      -0.98833674       0.82830787
H       10.51181352      11.41080447       5.62173941      -0.08789803       0.33557910      -0.08550580       0.09181792       0.00434602       0.71907675
C        6.50494523       2.53306690      21.40397669       0.63008424       0.23011210      -0.75735356       0.46686512      -0.57569826      -0.54375309
C        5.35626870       2.87604896      22.31928029       0.03569926      -0.45847658       1.36360317      -0.63562369      -0.15108046       0.66386831
O        4.42001590      21.19150288      22.47997913       0.28008384      -0.19606653       0.53752603       1.12640572       1.95172620       0.02601650
O        5.41872428       4.12839241      22.92630062       0.13502768       1.17947564       0.95748657      -0.97686702      -2.26832271      -0.85762429
H       23.66575537       4.16158756      23.53009186       0.19563984       0.07810867      -0.20456972       0.30261958       0.07383621       0.05869418
H        6.11012066      20.98856975      20.62175551      -0.07939028      -0.22265829       0.22810965       0.20558326       0.67614985       0.43722922
H        7.35483755       1.93793643      21.85384770      -0.33215806       0.11031482      -0.20445499      -1.06454551       0.54823190       0.14993206
H        6.97749282       3.41579120      20.94736693       0.20441893      -0.04397733       0.01069365      -0.28593042      -0.20479481      -0.00108036
C       13.23055718       5.97185384       6.66715522       0.05602508      -0.23333868      -0.45167112       1.17631364      -0.56100541      -0.44779846
C       14.00446899       6.42054858       7.88208777      -0.47701188      -0.00328806       1.13204924       0.91532671       0.41312939       0.65981257
O       14.88619849       7.33767019      26.80416171      -0.06974053      -0.08124713      -0.21669112      -0.39238930      -0.49904454       0.08543748
O       13.76616520       5.94776277       9.07108257      -0.30788397      -0.77905860       0.19215602      -0.17466664       0.04033211      -1.10809469
H       14.36854212       8.66902766       7.99586168       0.02866642      -0.17540143      -0.14445719       0.05514048      -0.28924793       0.18142802
H       13.87061821       5.37584663       5.96350037      -0.38855720       0.04439050       0.26678659      -0.20452382       0.53741390       0.78930968
H       12.97278683       6.84348425      25.23403964      -0.21672053       0.05054294       0.27202816      -0.44950247       0.39437291      -0.15221998
H       12.40173299       5.33910956       6.88575011      -0.14291268       0.14280598       0.10241425      -0.85979712      -0.34436840       0.37736779
C       10.57797023      22.95290485      -0.53257985      -0.44768058      -0.83219264      -0.27774030      -0.40104145       0.46998629       0.04837692
C        9.71349315      23.78109700       0.41659747       0.86755916       0.83232095      -0.30872415      -1.10520017       0.80816740       0.22780788
O        8.47241440      23.78314835       0.33976992      -0.39855175      -1.84230950      -0.45633714       1.08987737       0.05155906      -0.14036937
O       10.33351816      24.56924143       1.37092795       1.35029711      -0.00291332      -0.14131487      -0.34872329      -1.64192188      -1.36641645
H        0.21339690      19.73876597      -3.85861905      -0.24307552       0.33287226      -0.21803250      -0.02829760      -0.27068573      -0.78609073
H       10.34842452      23.17404371      -1.61204490       0.00180436      -0.05870578       0.05163555       0.55142355       0.29861414       0.96119773
H       10.26930203      21.91735023      -0.42955003       0.36801940      -0.34787209      -0.10284670      -0.12568665      -0.39338738       0.26988643
H       11.61494710      23.02520309      -0.18735220      -0.15814642      -0.37871636      -0.00384043       0.18670720       0.07295004      -0.69702423
C        5.66227616      10.32923081      11.25093421       0.37124739       0.05109902       0.35899240      -0.48790324       0.62466979      -1.02912605
N        4.22449847      10.24240251      10.93582222      -0.20460102       0.02384801      -0.19348513      -0.24924195      -1.20811594       0.99592996
C        3.35525922       9.43790622      11.72200647      -0.44635247      -0.62199792       0.32994043       1.71778643       1.26496470      -0.10969272
C        2.11162470       9.81971242      11.35452604       0.02963970       1.08542228      -0.24572032      -0.92015845      -0.25213432      -0.67920870
N        2.14377346      10.67670414      10.28300844      -0.56693006       0.62338086      -0.37557379      -0.14002156       0.63632625      -0.50753140
C        3.43029177      10.91028661      10.06262837       0.25607426      -1.19022128      -0.19835855       1.21206188       0.76276690      -1.11543071
H        5.88193854       9.42158877      11.75416777      -0.02816919       0.12927678       0.00291563       0.49218944      -0.67604899       0.98760313
H        5.90851900      11.23715292      11.81359826       0.16499175       0.14664768       0.25531905      -0.12621973      -0.28021860       0.27236855
H        6.27134087      10.31930646      10.34604624       0.02757242       0.10070226      -0.00546489      -0.19794038       0.05559966      -0.16817313
H        3.80902349       8.82557715      12.47415091       0.03499847      -0.22973819      -0.24648533      -0.16824703      -0.41458285       0.29007849
H        1.15420063       9.58452129      11.76029902      -0.06181669      -0.03630940       0.13742809      -0.41256553      -0.39529756       0.36522233
H        3.91509920      11.47636889       9.21881317      -0.07370759      -0.09295717       0.11576365      -0.89232326      -0.58582163       0.91542405
C       -1.51836860      19.37307830      19.73472390      -0.81530482      -0.29281608      -0.41296367       0.34519443      -2.53707981      -0.97788250
N       -0.51429642      19.56173422      18.67497585       0.53892794      -0.21250362       0.42967791       1.42374825      -0.62551081       0.45239758
C        0.88810583      19.44071337      18.74006580      -0.88535576      -0.04643743      -0.52848539      -0.11823845       0.19918077      -0.55160207
C        1.29322730      19.45088375      17.42386324      -0.59283131       0.25604416      -0.55583471       2.13322735      -0.49933848      -0.34180146
N        0.18379778      19.45577996      16.57959061      -0.14860557      -0.05143846       0.87484362       2.78400278       0.68546700      -0.86933184
C       -0.82004993      19.63194595      17.35756366       0.25934269       0.25777780      -0.40307288      -3.56730103      -0.19715013       1.09814322
H       -1.34760465      -0.66410720      20.43441954      -0.24922612      -0.12440814       0.13337777       0.49628583       1.02897096      -0.87394756
H       -2.38290275      -0.08389084      19.12706018       0.03311953      -0.17278534       0.09294108      -0.51190758       0.67035556       0.70940340
H       -1.52160708      20.27637681      20.25905453      -0.07078206      -0.02490329       0.03536925      -0.88342369       1.42040300       1.07605457
H        1.52325857      19.34646605      19.63147644       0.01257685      -0.23211225       0.17513614      -0.82698405       0.10371980      -0.30320448
H        2.37244182      19.51996680      17.07411343      -0.17961717      -0.17072750       0.03495567      -1.56922996      -0.18745729       0.19269902
H       -1.85078055      19.80987751      17.03205140      -0.05076218       0.07311756      -0.19556332       0.39103693      -0.12872699       0.08735991
C       11.13216664      22.39340173       9.30438717       0.57050259      -0.65200571       0.52057564      -0.73091930       2.87702656       0.19075835
N       11.63906158      21.24232340       8.69510735      -0.04090484      -0.37193370      -1.05290432       0.87993765      -2.75488949       1.77659094
C       12.18051068      20.18001529       9.44886641      -1.06665151       0.00912091      -0.30886690      -0.57209414      -0.02434051       0.23836172
C       12.72734921      19.31499720       8.55139927      -0.35222620      -1.25091425       0.84758993       0.95925546      -0.04491863      -0.55662787
N       12.61978762      19.83554311       7.26795424      -0.15105167      -0.32706489      -0.93029165      -0.37165710      -0.80371213      -0.20382272
C       11.90612745      20.93186122       7.41821714       0.19206675       0.18012797       0.34073699       0.05818897       2.07708883      -2.09200788
H       10.69349027      23.03391138       8.51380502       0.00355950       0.05128351      -0.01856069      -0.26271456      -0.41576409       0.28740522
H       11.96814977      23.05654035       9.66017297      -0.13276724      -0.20637882      -0.10069415      -0.57645506      -0.74248910       0.34926331
H       10.34826711      22.16486901      10.07496319       0.46798510      -0.11084918       0.16320840       0.78830904       0.26029187      -0.43512529
H       12.03997569      20.04977788      10.51595800      -0.13990605       0.14407467      -0.22594969      -0.04358311       0.33001947      -0.09989059
H       13.30410596      18.41420695       8.72989605       0.10277611       0.01215966       0.39003340      -0.09639424       0.01763856       0.07861453
H       11.61812078      21.68322463       6.63401834      -0.24136603      -0.00027875       0.11058956       0.35322857      -1.10527551       0.66019768
C        7.17068468      16.10107815      18.61243740       0.32795302      -0.07296548       0.40767675       1.97370744       0.64329207       0.21145815
N        5.76199073      15.93800069      18.41645392       0.08028166      -0.74944969       1.09715393       0.13164568       2.10567784      -0.87248331
C        5.03508982      16.76186838      17.58665387      -0.42781166       1.49777434       0.71398145      -1.76647592       0.59960997      -2.07773829
C        3.78328475      16.09147210      17.41872208       0.95876657       0.91091241       1.17760040       2.45556879       1.72821224       0.00786547
N        3.76698101      14.99948181      18.16561525      -0.30991125      -0.96166161      -0.19748126      -0.32394630      -1.79295874       1.80933666
C        4.93762492      14.95018865      18.81254259      -0.57995143       0.78475022      -0.31673368      -0.74004728      -0.22127581      -1.31754541
H        7.50356976      15.31806034      19.24170471       0.13643446       0.26734230       0.20392722       0.46530905      -1.43514895       0.51252955
H        7.51888380      16.96407187      19.20841535       0.42458720      -0.04667976       0.18626375      -0.83206010       0.38405970      -0.17926311
H        7.84130561      16.12029819      17.70525359      -0.07857563      -0.15320156       0.14674703      -1.28426576      -0.29965365       0.40869412
H        5.36623254      17.68160596      17.01925162      -0.00365101      -0.15102829      -0.03975292       0.03332356      -1.08177090       1.00090134
H        2.96893726      16.27807880      16.78243061      -0.22570134      -0.12483612      -0.08225508      -0.87891656       0.58643234      -0.85972351
H        5.25682198      14.14336740      19.38100800      -0.10384209       0.12447152       0.10498394       0.59665900      -1.35998559       1.14892840
C        3.54355873      17.92910010      20.78507113       0.45505865      -0.36708983       0.66327837      -2.64242816      -2.02716088       0.00245199
N        4.45672823      17.49502369      21.83007742       0.19903160       1.12164005      -0.50815701      -0.20774102       1.95261610       1.70057011
C        5.01463024      16.26605851      22.13345689      -0.16736906       0.23182045      -0.41456465       1.12128484      -1.09786880      -1.82116282
C        5.94957122      16.49393525      23.11852468       1.05610018       0.29611879       0.64356036       0.61840332      -0.53503942       0.74728143
N        5.81967915      17.78439400      23.51674018       0.81887451      -0.69986894       1.52779706       0.16689521       1.50033522       0.63379401
C        4.87023220      18.39751561      22.81196788       0.22093055       0.66436216      -0.19998583       0.37841776      -0.99581361      -0.62147266
H        3.47758367      17.12742641      20.00927386       0.02558293      -0.08705789      -0.12368870       0.46583420       0.65764707       0.11055538
H        3.76121458      18.90708916      20.34266009       0.00095646       0.00764570       0.12260803       0.21669576      -0.08125284       0.32145452
H        2.46814934      17.86832824      21.22336779       0.11809367      -0.09038719      -0.29100711       1.58382130       0.67698240      -0.58516473
H        4.94802188      15.39054992      21.43799380       0.16718215       0.04058501       0.14150359      -0.25548467       0.98311180       1.00780094
H        6.78111471      15.93632301      23.58664211       0.19013311       0.04002613      -0.41413986      -0.81288624      -0.18528056      -0.67415625
H        4.49360075      19.39362013      23.08516278       0.19438778      -0.39548407      -0.06268502      -0.08780351      -0.46206707      -0.68960941
C       13.05788417      -1.37274353      13.61172000       0.49154596       0.20304483       0.34999886       0.29586434      -0.62677193       1.38909745
N       14.44103175      -1.51117607      14.12606331      -1.73120590      -0.07143126       0.07242656      -1.85696435      -0.17672214      -0.56202668