640
Lattice="18.700606 0.0 0.0 0.0 18.700606 0.0 0.0 0.0 18.700606" Properties=species:S:1:pos:R:3:momenta:R:3:forces:R:3 energy=-80124.4296875 stress="-0.01800651289522648 0.0011880923993885517 -0.0005493315984494984 0.0011880923993885517 -0.022969815880060196 -0.0020828319247812033 -0.0005493315984494984 -0.0020828319247812033 -0.019479142501950264" pbc="T T T"
C       10.48324220       5.77430164       8.27161955       0.43583241       0.70630973       0.71511584       0.20612401      -0.85733289      -1.58247912
C       10.70790280       7.21659426       8.57159348      -0.52131056      -0.05549084       0.28021323       0.74080527       0.25959009      -1.81887758
O        9.87471049       7.89648341       9.13858526      -0.02733643      -1.00248959      -0.45575360      -1.05006170       0.68456769       1.39310992
O       11.80592957       7.84844899       8.11767795      -0.13986361      -0.47532284       0.15365623       0.27595699       0.08039582       0.31338212
H        2.91112421       6.83702184       3.61705433       0.13911778       0.07283788       0.17129387       0.65458834       0.16139990       0.69392955
H       11.41382059       5.21500771       8.33652832      -0.11873286      -0.20394645       0.01379529       0.21391499      -0.32503802       0.22104163
H       10.13932616       5.55810912       7.19345550      -0.19457269      -0.21877539      -0.14796431       0.32590944       0.73827410       1.28704810
H        9.71511387       5.34178590       8.90471704       0.23515174       0.16951348       0.04382901      -0.08865617       0.04487902       0.23829795
C        0.38769911      14.23799540       3.56746490      -0.03294875      -0.11168877       0.50078766      -1.13961363       1.91999602      -1.18246245
C        1.13640040      15.49172157       3.02620326      -0.07145045       0.78933737       1.18681030      -0.77172613      -1.01769805       1.16733027
O        0.86682433      15.95039282       1.90389528       0.47830715       0.30979416       1.13487336       0.01990214       0.14121866      -1.03533328
O        1.92495773      16.09799036       3.85530778      -0.49714283       0.56930592       1.15709917       0.30756471       0.12738281       0.35528100
H        1.38686787      17.42181776       4.27165190      -0.33894927       0.09002068      -0.00532780      -0.64040917       0.53033960       0.11371708
H        1.10418706      13.52781598       3.88503563      -0.01486504      -0.12347442      -0.22186286       0.80308580      -1.05881727       0.45650423
H       -0.30951747      13.82623287       2.77767580      -0.34984333      -0.00337463      -0.04039376       0.64333349       0.47195697       0.97002757
H       -0.20997826      14.63617647       4.42138799      -0.05009753      -0.01353934       0.22601236       0.10753927      -0.56804776      -0.41300887
C        5.22355777       9.01642224      15.49040308      -1.26165122       0.49216016      -1.15766578      -1.05142176      -0.01425070       1.29202819
C        4.33594892       8.23440480      -2.17810752       0.26068943       0.43619096       0.24258302       1.05244517      -0.00582337      -1.81020916
O        3.84424565       9.03567569      -1.26301485      -0.94999552      -0.58670208      -1.19203527      -0.33198133       0.78099418       0.67613965
O        4.12044670       7.02099631      -2.20290176       0.09045393      -0.75266489      -0.62993871       0.05138001       0.16289210       0.00418919
H        4.44438359       5.98195206      -3.51275910       0.20232312      -0.27899250       0.27454630       0.18061328       0.18973821       0.51485699
H        4.64160400       9.91970078      15.18749845       0.12617334      -0.10142879       0.06852841       0.68828881      -0.58818871       0.17423682
H        5.44901817       8.40917820      14.62489745       0.19959744      -0.18306199      -0.31029361       0.05018137      -0.30498973      -0.26075473
H        6.14224870       9.29301597      16.04390895       0.24267541       0.13246118      -0.11337540      -0.18068057       0.19884646      -0.41051936
C       12.14586756       2.90707969       4.77923794      -0.25155713       0.29064994       0.00917346      -0.70583069      -0.19861580       1.03761530
C       12.35005428       2.26543933       6.14722724      -0.04589545       1.00577856      -0.01922787      -0.16195071       0.04344237      -0.84485686
O       11.77210154       2.92351216       7.12278796       1.37508964      -0.76451269       0.18490994      -0.01235086       0.07245564       1.28647971
O       12.97794840       1.20341003       6.25743343      -0.10616252      -0.64143009      -0.61573293       0.53660464       0.00338764       0.09743547
H       16.51804610       6.66854357      10.06503788       0.09894034      -0.08508946      -0.05798254       0.39702880       0.53340966      -0.30964929
H       13.10030588       3.09145111       4.35005640       0.16565038      -0.18031131       0.28956918       1.11364698      -0.24900268      -0.89380348
H       11.68157762       3.87469485       4.89542901       0.12177322       0.29327961       0.04475383      -0.41765705       0.43125999       0.10462987
H       11.49217281       2.25551900       4.18026759      -0.17143552      -0.03349032       0.15570060       0.47323769       0.07844949      -0.16388193
C       14.90491880      -3.48944152       3.56810377       0.89709119      -1.10113391      -0.11819721      -1.20360982       0.15449767      -0.09694731
C       15.05882608      15.17692756       5.04278662       0.71444019       0.22237067       0.48066108       1.44625378      -2.04364252       1.35024679
O       16.20690823      15.12348004       5.54882327       0.36444543       0.28279208       1.19701049      -0.31491911       0.73608696      -0.24307472
O       13.99101114      14.99541991       5.81085686      -0.96983414      -0.20798850       0.66842011      -0.35558069       0.32540801      -1.02984583
H       11.54131226      15.43055893       7.20744931       0.04385813       0.08064110      -0.23769217      -0.61718011      -0.28191555      -0.72499925
H       13.81150258      -3.45372539       3.41481095      -0.03175361      -0.17199351       0.23171023       0.57582974      -0.37305522      -0.70610535
H       15.47159122      -4.25339330       2.99763678       0.13553168      -0.44768488      -0.30656293      -0.49597055       0.09061189       0.48496306
H       15.30861810      -2.54302808       3.27690174      -0.03374867      -0.40663479      -0.21093968       0.37885246       0.94814873      -0.60871851
C       12.67932625      11.05263573       6.66236556      -0.06482718       0.20801933       0.31768104      -2.84640646       0.91857779      -1.05529881
C       14.16557842      11.28483652       6.64672490      -0.28519276       0.95227223       0.43865398       1.71093714       0.56011796       0.29495543
O       14.85539568      11.13411787       5.49872039       0.19896335       0.49515618      -0.61512746      -0.70892799       0.01660197       2.26067638
O       14.73000100      11.65350381       7.76734570      -0.76754959      -0.73630076      -1.13435264      -0.78917402      -0.88093770      -2.51628494
H       16.46200552      11.73786707       7.54009007      -0.01460060       0.00329383       0.16714793      -1.22724962      -0.34279403       0.22555764
H       12.25806037      11.34729651       7.67850493      -0.15681615      -0.03320076       0.05559359       0.65744138      -0.82362890      -1.06651545
H       12.29920702      10.03253547       6.27741689       0.09864582      -0.26860840       0.09671795       0.82138443       1.27409339       1.00678504
H       12.04722639      11.77694009       5.93066008      -0.17878512       0.13476119      -0.13662488       1.87910366      -1.29208922       1.39873385
C       25.04785208      -3.55142847       5.15384232       0.57714872      -0.13039266      -0.34511855       4.31105709      -2.05827093      -1.78920269
C       23.63944303      -3.39820749       5.21786111       0.32115485      -0.62047687      -0.05195433      -2.83917975       1.64273548      -0.16464359
O       23.03387213      -3.30779897       3.99972479       0.51519235      -0.31788337      -0.30637994       0.50572950      -0.29534835      -0.10669696
O        4.31308145      -3.22750417       6.26492970       0.17847485       0.03463206      -1.28788964      -0.19793573      -0.08680727       0.41878200
H       -6.65337091       2.58483665       8.17350444       0.04339634      -0.11636720      -0.08426063       0.20415553       0.08213213      -0.66663754
H       25.57862877      -3.75108078       6.09975754      -0.11942399      -0.00049760       0.01169452      -0.66374201      -0.26971686       0.03467188
H       25.68929934      -2.73299199       4.73226403      -0.00557738      -0.05403086      -0.00849174      -1.01056445       0.02020374      -0.10882192
H       25.27190138      -4.44658751       4.42226520      -0.27389962      -0.08579689       0.42697545      -0.20902511       1.37575006       1.23711777
C        8.92980691       3.34000281       4.67764553       0.43724814       0.31798148      -0.23582915      -0.02841651      -1.65532553       0.87082756
C        8.62581595       4.72544977       5.19546133      -0.63677023      -0.66457944       0.94255423       1.14865172      -0.00112081       0.27544510
O        9.09451605       5.75894811       4.56379948       0.56309660      -0.24535516      -0.42626015      -0.50828344      -0.43397981       0.47403437
O        8.06302581       4.73103084       6.33489148      -0.80517382      -1.40653159      -0.58942059      -0.63943678       0.75977516       0.16871715
H       12.45487974       7.43057483       7.41765641       0.06733272      -0.32113768       0.31859806      -0.34199330      -0.45512059       0.10842909
H        8.06066589       2.66951454       4.54170997       0.16199784       0.07456784       0.10947779      -0.20376305       0.68201894      -0.63717532
H        9.43092528       2.66520541       5.41529844       0.10764433      -0.16170132      -0.14350725      -0.10302618       0.96356940       0.50365067
H        9.67085768       3.28069229       3.91228870      -0.17386233       0.18261479       0.00159806      -0.00293557       0.37359339      -1.42480683
C        1.86573629      15.94682360      11.20723537      -0.52149385      -1.47127106      -0.34530972       2.50881553       0.46228051      -1.06402004
C        1.76484243      14.58925779      10.67187869      -0.78586079       0.38733215       0.13109218       2.50942755      -2.80650425      -0.23202729
O        2.80617439      13.95925762      10.29755854       0.46220909      -0.08205718       0.09281410      -2.06287718       0.80752945       0.18570149
O        0.60255444      13.93504491      10.69940611      -0.81204410       0.04202785      -0.60289087      -0.47561991       0.46206689      -0.02107447
H       -0.18744130      14.57307281      10.90246752       0.15106599      -0.00293847      -0.10255371       0.02922213      -0.48265800      -0.33261129
H        0.94121851      16.42905318      11.13045547       0.03751801       0.13066143      -0.34717128      -1.40399683       1.26028371       0.12391169
H        2.68551563      16.41935578      10.56588647      -0.13558123      -0.19112801       0.06208585      -1.16825461      -0.15392902       0.98047948
H        2.24332787      15.88766015      12.23762122      -0.06632560       0.06278021       0.15568778      -0.20052764       0.00205579      -0.00152516
C        5.18434015      11.17833077       4.89872865      -0.22009146       1.06454695      -0.88066359      -0.27066839      -0.38884398      -0.93719494
C        3.88468009      11.82557457       5.30132233       0.21577907       0.08688409      -0.96257059       1.04715347      -0.32111660       0.21658728
O        3.77829129      12.09184127       6.60951241       1.26949002      -0.07871827      -0.40111854      -0.54753327       0.37405738       0.41293514
O        2.98535604      12.10676841       4.52673950      -0.35390975       0.34683155       0.45902650      -0.75111723       0.09014300      -0.29498559
H        4.65865540       8.37307144      10.89356988      -0.04445707       0.10276579       0.08366475       0.09514469      -0.05654664      -0.10165781
H        5.11213396      10.28516127       4.25138631      -0.07060631       0.08771417       0.05745864      -0.49160936       0.14589784       0.34231505
H        5.78763100      10.97277320       5.74678147       0.23391176       0.01653527      -0.05750950       0.60355282      -0.45235735       0.96507967
H        5.76497251      11.86214707       4.30188688       0.24409918       0.19684642      -0.06807023       0.32714278       0.75516939      -0.53506845
C       11.39017277      -0.89264492       7.74995772       0.44088986       0.21046273      -0.00432591      -1.26106739      -1.93518496       1.75330079
C       12.17884780      -1.99034451       8.58297298      -0.16739335       0.05611353      -0.77603685      -0.37231910       1.31075811      -1.89803636
O       12.85701897      -1.74977775       9.58656426       0.26819729      -0.38532998      -0.28560695      -0.33580679      -0.14141321      -0.37995768
O       12.07161205      -3.21191552       8.05719765      -0.17197304      -0.88582965       0.92159132       0.86269301      -0.09832084       1.48071074
H       13.10893478      -4.00159511       5.19326512      -0.33055159      -0.22549679      -0.12769157       0.22007453       0.02967641       0.93603903
H       11.00525327      -0.16727520       8.48870700      -0.14736396      -0.04527192      -0.07443902      -0.26496366      -0.27076295      -0.22878517
H       10.57209635      -1.43159089       7.17787817      -0.22514865       0.32124686      -0.18324682       0.64016581       0.73220599       0.80933976
H       11.94286296      -0.30470257       7.05702446       0.20955216      -0.13179454      -0.15326884       1.17386079       0.17619205      -0.66018814
C        7.59207674      18.26784574      17.55528735      -0.91356230      -0.10097293       1.57420670      -0.52706683      -0.06273752       3.75399017
C        7.96006277      17.35881613      16.48722829       0.13727672       0.15249648      -0.06103069       1.77296209      -1.22573125      -0.18724394
O        8.21971231      16.13704798      -2.03586564      -0.62793846       0.73636221      -1.22325107      -0.81792969       1.11020958      -0.52331400
O        8.28338683      18.01117328      15.36935949       0.19520997       0.53435747       0.09178054      -1.02210248       0.67245007       0.67901099
H        8.77948826      17.36998408      14.79770077      -0.22641957       0.07252408       0.16104697       0.82289767      -0.82988268      -1.35559869
H        8.27072206      19.15095586      17.63281408      -0.25189867       0.22806499       0.18600721      -0.42427918      -0.47653648      -0.19031420
H        7.68128512      17.64472567      18.55665158       0.20561992       0.03095647       0.00816577      -0.15455341       1.34059000      -1.78743732
H        6.53403022      18.61245531      17.56714929      -0.03639975      -0.34195796      -0.16404663       0.51651341      -0.18115118      -0.37140769
C       15.34264279       7.77799892      26.21485043      -1.49547733      -0.89352599      -1.11069076      -0.22421157      -0.86750972      -1.23759365
C       14.55830069       7.18589627      24.95462245      -0.15121235       0.35169005      -0.42989212       1.05722690       1.03924060       1.39432073
O       15.24558549       7.15550814      23.85754697       0.45499458       0.04292081       0.79262170      -1.16131234      -0.51200503       0.12089586
O       13.33070368       6.87228012      25.08401490       0.15244200       0.04385190       0.32519753       0.57748878      -0.34776676      -0.73927677
H        9.31594634       7.25370954      24.01927534      -0.05507982      -0.00148590       0.17311240      -0.25130028       0.15508185      -0.17091364
H       16.13211286       8.43828896      25.80249188      -0.02564166       0.12300309      -0.03817791      -0.29714355      -0.14190608       0.26801649
H       15.86490935       6.95466822      26.80498567      -0.15238653       0.07541823      -0.11397686      -1.14502513       1.11809683      -0.61711776
H       14.60645884       8.39739728      26.75708694      -0.12138744      -0.29105761      -0.06168860       0.53052098      -0.38983411       0.36648664
C        2.99549581      11.66354469      -4.36156496      -0.05462236      -0.48680541      -0.07613840      -0.28511277      -0.37747729      -1.16081226
C        2.76828185      13.09476148      -4.69123746       0.34168592      -0.57295325       0.26924380       1.01851702       2.09005952      -0.68352991
O        3.83174095      13.92283299      -4.92863274      -0.25128789      -0.28066755       0.33904793      -0.49324846      -1.22028697       0.73418391
O        1.65537784      13.59518618      -4.81021986       0.03149754       0.99705613       0.41081455      -0.99583954      -0.18221545       0.29712409
H        5.36853985      17.91259775      -5.81478607       0.12940218       0.09111647       0.23049422       0.15874776      -0.21260116       0.20872876
H        3.60317337      11.51652738      -3.47782621       0.03602586      -0.15976722      -0.18381608       0.67184573      -0.07998406      -0.14543469
H        3.26055274      11.16143722      -5.32656618       0.20607919       0.21166419       0.28603076       0.86669064       0.20931166       0.89087540
H        2.04961946      11.19604926      -4.17489396      -0.00547645       0.06716292       0.19989646      -0.96461678      -0.17404975       0.50450414
C        2.46250944       5.00465747      10.20306704      -0.06719944      -0.38772932      -0.36727741       0.71823967      -1.07398653       1.66840279
C        3.70426726       4.68268010       9.34981505      -0.34699153       0.24882388       0.80866094      -2.09250975       0.09974021      -0.87427282
O        4.74120511       4.12625833       9.69436021       0.69964004      -0.59485305      -0.32976664       0.23207426       0.13391711       0.31218481
O        3.38108437       5.03215524       8.08749880       1.46833068       0.05727394      -0.57217051       1.00778508      -0.08703637      -0.78022540
H        3.97504349       4.56513195       7.31581207      -0.14423596       0.08379577       0.19594384      -0.38721448      -0.23642445       1.13200760
H        1.48934414       4.71733386       9.79715313       0.05056476       0.01759582      -0.28950973       0.28359175      -0.09249033      -0.46820337
H        2.42600609       6.04270069      10.45226684      -0.37745385       0.01789441      -0.11322267       0.12206230       1.29592037      -0.28468528
H        2.53378323       4.58657661      11.23387646       0.25912317      -0.27334869       0.02012532       0.21244375      -0.33961171      -0.60707963
C       10.89529146       1.81322938      15.12110634      -0.33396412       0.21921705       0.99917398      -0.86157829       1.05063438       0.90003711
C       12.31933058       2.12627296      15.59263930      -0.95406108       0.19846245       0.97419573      -2.03539944       0.24204686      -1.67305601
O       12.79584988       3.32120551      15.27147481      -0.57030791       1.06932584      -0.80543989      -0.53598440       0.35044700      -0.22040781
O       12.92232565       1.26509054      16.17663856       0.32639323      -1.81973466      -0.71121109       1.90223765      -1.01761937       1.07741129
H       11.95125759       3.87050458      14.90261426      -0.11883721      -0.23868261      -0.09263847       0.68972445       0.28110945      -0.06804828
H       10.17877120       2.52090650      15.61793488       0.23463594      -0.20788817       0.01408501       0.47762871      -0.28872937      -0.27848229
H       10.62643934       0.84032721      15.51414586      -0.14636140       0.10258992       0.02363129      -0.14314833      -0.50739080      -0.25882894
H       10.68063603       1.91924218      14.04965869      -0.02645121      -0.17119567      -0.11860986       0.40396351      -0.10180604      -0.02727005
C        8.51409937       5.12577681      11.71057724       0.09925144       0.64024276       0.58251439       2.26858068      -1.79867601      -1.32141745
N        7.81104855       6.34459803      11.65687088      -0.10417738      -1.33034546       0.71294184      -2.39848590       1.29854763       0.53757012
C        8.09309098       7.46060540      12.37616350      -0.72037216      -0.57539139       0.24472039      -0.19520968       1.28094959       0.70965499
C        7.05290660       8.34218368      12.13428576      -0.90076037      -0.16378646      -0.73220980       1.57884920       1.34880507       1.43112767
N        6.11775858       7.81187655      11.35508230      -0.84019464       0.02323677       0.10915311      -1.01057446      -1.79494226      -1.49642491
C        6.59628799       6.59629021      11.03516104      -1.14411299       1.06377586       0.06874936       0.02426380      -1.27156544      -0.38780206
H        7.88143245       4.25139401      11.41075273       0.18362515      -0.05167287       0.04845619       0.48286378       0.69966543       0.04996096
H        9.04954817       4.85017642      12.66710225       0.15141977       0.03820565      -0.27464743      -0.83399665       0.87517715      -0.49098301
H        9.34597630       5.33820548      10.95557815       0.07445675      -0.01928488      -0.09997452      -0.62242734      -1.10706878       0.70799428
H        8.82886790       7.51982996      13.16417996       0.07771816       0.23563545       0.16965345       0.27030617      -0.17305109      -0.19906406
H        7.00489779       9.37534800      12.44016436      -0.11450245      -0.11044110      -0.05811118      -0.03103692       0.18852067       0.14106429
H        6.16969197       5.81414840      10.38615928      -0.16111617      -0.14919066      -0.15185176      -0.09438661       0.57281768       0.31159446
C        9.36853340      14.79845703      10.59260300      -0.20664188       0.82101923      -0.27833153       1.31245446      -0.22777954      -2.59609222
N        9.73330465      15.71727660      11.62490227       0.44448188      -0.05619856       0.15384935      -2.36616230      -0.24509706      -0.10108411
C       10.77253655      16.57093132      11.67846898       0.50067848       0.54404995       0.33395479       1.93643427       0.61307466       1.15305448
C       10.72503337      17.04346463      13.01574268      -0.09177796       0.28125360      -0.22737153       2.38016915       0.89238018      -0.22957221
N        9.59564627      16.57665312      13.64175979      -0.09771366       0.88096423      -0.95819510       0.26421851       0.85563064       0.57043362
C        8.95370139      15.83643272      12.76290810       0.03201495      -0.37348178      -0.26149140       1.86642456      -0.59693515      -0.50493962
H        9.97344022      14.96902170       9.62927517      -0.53044066       0.14342635      -0.42107273      -0.38515693      -0.11530789       1.43156493
H        8.35415359      14.93309549      10.24827722      -0.01284181       0.11796243       0.07981789      -0.69623518      -0.08234289       0.26857349
H        9.55101812      13.76899775      10.89273938      -0.01783892      -0.12175873      -0.09475728      -0.07071561      -0.25860977       0.11798112
H       11.53983595      16.64147415      10.84650570      -0.01613809       0.03645726       0.19007192      -1.09856975       0.10302576       1.35134041
H       11.60846007      17.55556676      13.57844936      -0.02492461       0.04687335       0.08814835      -1.99449015      -0.88984954      -1.03884256
H        8.08135542      15.26158660      12.93603756       0.09693687      -0.13110927      -0.04371389      -0.91122997      -0.40673581       0.06459078
C       -3.53499879      10.53775002      11.08025763       0.62518598      -0.31839424       0.08053882       0.30978692       1.47783375      -0.94138712
N       15.90407851      11.19412624      12.16352286      -0.44287899      -0.07646513      -0.19740857      -1.86189878      -0.45924866      -0.07569182
C       17.17510930      11.68970878      12.11249545       1.09867844      -0.43327928      -0.55640524      -0.76001364      -0.94037282      -0.87734294
C       17.51621674      11.95449856      13.37469297      -1.36560250       0.78321084       1.11013229       1.45754254       1.71842360       2.50706100
N       16.43071518      11.65881706      14.27549148      -0.57224514      -0.32669116      -0.94964047       2.80513096       0.69974816      -0.06606203
C       15.52922523      11.15763448      13.49540156       0.46277571       0.60613745      -0.69363969      -1.15159488      -0.43946499      -1.42444170
H       -4.54816684      10.32476114      11.32497640      -0.21448697       0.26683357      -0.26882656      -0.95305371      -0.06862346       0.72536141
H       -3.03640626       9.63879867      10.91261433      -0.18436176       0.00788606       0.03928074       0.80353761      -1.83109426      -0.57274485
H       -3.56904920      11.07014787      10.09365650       0.15830188      -0.04559509       0.08119804       0.36155698       0.07774802       0.90712321
H       17.70022964      11.68060580      11.19586905      -0.12575618       0.03375946       0.19282923       0.63749576       0.14374770      -0.72251070
H       18.48628185      12.50130935      13.59569303       0.12580398       0.10361833      -0.37013746      -1.50039673      -0.83414674       0.42775184
H       14.58562421      10.71723160      13.79672849       0.23481271       0.08878017       0.09584130       0.08994997       0.19526532      -0.08522756
C       11.75473246      -0.81707187       3.34485722       0.42616806       0.45481278      -0.80448487      -1.59667122      -1.18114686       0.01603272
N       10.27706851      -0.83859750       3.33902395       0.74811944       0.62300833       1.02826827       0.17280388      -0.56350923       1.32208586
C        9.41738094      -0.77287131       2.28884314      -0.74715440       1.29979832       0.11395715       1.76181781      -0.22339736      -4.13315487
C        8.15544887      18.05514455       2.75993006       0.83503661       0.30935508       1.07968777      -1.01208067       0.37140098       0.45194405
N        8.17163302      17.99966734       4.13625125       0.44262024       0.09648868       0.75584629       1.54206347      -0.44227704       0.97061521
C        9.49744823      17.84598516       4.46849720       0.08743912      -1.12662866      -0.05924379      -1.89620519       0.77593285      -1.22949266
H       12.03445816      -0.32034461       4.23538683       0.05548370      -0.05526091       0.00558904       0.64403987       0.43802208       1.20766306
H       12.04055800      -0.20756633       2.53283306       0.02873027      -0.21813868      -0.21931758       0.83276665       0.42738545      -1.18930387
H       12.13840837      -1.85060066       3.32453280      -0.04796504      -0.07207874      -0.12713970       0.05830252       0.37324172      -0.12990224
H        9.80871446      -0.90758006       1.18879598       0.24681891      -0.00752398       0.05549610      -0.91954648       0.38177025       2.44777155
H        7.25676472      18.33501518       2.20558609      -0.04578361      -0.00841757       0.11719921       0.17870009      -0.33123222       0.19154716
H        9.91206213      17.87317095       5.45286551       0.13428006       0.06427922      -0.21345697       0.04769361      -0.10030073       0.28228155
C        3.59765695       8.88120778       7.42010200      -2.08573724       0.04253577      -0.47296746       2.10669780      -0.97043294       0.34875989
N        4.96663941       8.18415408       7.34403784      -0.52205805       0.06759945       1.33824531       1.12598753       0.79619652       0.95336652
C        6.01037795       8.72684597       8.18830504       1.11584763       0.72852688       0.18432368       0.66678357      -2.15644670      -1.94754124
C        7.16020209       7.92840047       7.92174809      -1.48951334       0.04382789       0.28555229      -2.53157187       1.50567007       1.47433567
N        6.74095012       6.86520598       7.18843566       0.28343835      -0.55242289       0.95198943      -0.36766946       0.34877610      -1.05992794
C        5.46472798       7.04745239       6.76574900       1.14322183       0.41695042       0.14037313       0.35338342       1.27334821       1.09629095
H        3.44065283       8.84570692       8.49990394      -0.02100163       0.23845762      -0.16550320      -0.61789393       0.32157323      -0.26983470
H        2.85492089       8.33442229       6.87590328       0.18908537      -0.14406008       0.12933797      -0.41495833      -0.51750207      -0.49753287
H        3.71797672       9.89901543       7.04572114       0.21544652       0.02651296       0.23042378      -0.04363831      -0.15870208       0.09936517
H        5.73884674       9.39655530       8.99372225       0.01004899       0.01268724      -0.11912073       0.21515456       0.02839518      -0.16542324
H        8.16839770       8.01732229       8.28060704       0.02635912       0.30819832       0.01077839       0.35858011       0.16599491       0.05540943
H        5.02712790       6.50461827       5.97854691      -0.06606081       0.11074307      -0.16709785      -0.65862250      -0.66156507      -0.69605654
C       -1.78235453       7.73153276      14.00973104      -0.41515396      -0.03234254       0.58771969       0.47020754       0.44750214       0.34913185