640
Lattice="19.152215 0.0 0.0 0.0 19.152215 0.0 0.0 0.0 19.152215" Properties=species:S:1:pos:R:3:momenta:R:3:forces:R:3 energy=-80135.484375 stress="-0.014093424193561077 -0.0002407650463283062 0.0008671630057506263 -0.0002407650463283062 -0.018497630953788757 0.0003949199162889272 0.0008671630057506263 0.0003949199162889272 -0.01779627799987793" pbc="T T T"
C       18.47000788       7.39243422      16.51808380      -0.42708958      -0.10758187       0.19139125       1.10215724      -2.01449347       1.15934181
C       18.65463696       7.40442163      15.05495426       1.10660738      -0.48481268       0.92848864       0.91788167       1.87783813      -1.36342454
O       19.28649061       6.37818579      14.48838737       0.60178343      -0.18132530      -1.27447585      -0.88157779       0.45495439      -0.53558123
O       18.38141776       8.45185012      14.41105129       0.54421047      -1.01246716      -0.24382373      -0.10168512      -1.34205699       0.23797703
H       19.59022744       5.56782404      15.17141106       0.19241490      -0.30095360       0.05175272       0.40554452       0.21481751      -0.04241589
H       17.45260837       7.58366823      16.77625254       0.06257931      -0.17020507       0.18100166      -1.07868350       0.04263663       0.36474645
H       19.06837349       8.17927724      16.95580675       0.08487401      -0.10233885       0.01758863       0.31784725       0.55067611       0.17069791
H       18.86541841       6.42264290      16.96501057       0.25503291       0.01227807       0.08282353      -0.73342562       1.11387944      -0.35049298
C        9.08289041      24.78524339      10.55444135       0.73144031       0.40012090      -0.07293787      -1.20276332      -2.03415966      -0.61896992
C        8.79603647      24.24184703      11.94172846      -0.32763419       0.50100331       0.32867427       2.24331236       2.37545204       1.58418918
O        9.45115696      24.66069962      12.93732203       0.57601256       0.82697767      -0.81332030      -1.15108693      -1.01021290      -1.29661357
O        7.77730700      23.41454234      12.12749321      -0.37347106       0.37496788      -0.77832274      -0.92619300      -0.33322152      -0.24294817
H        9.18473636      20.60637505       8.44025524      -0.23145534      -0.24327342      -0.22276099      -0.20350817      -0.15997279      -0.03020832
H        8.39541814      25.61102665      10.44747037       0.31890496      -0.19852888       0.38769351      -0.58408272       0.43417603      -0.37563571
H        8.79145357      23.97468876       9.80529592      -0.06032877       0.13231371       0.23428261       0.42280355       1.13978863       0.59132016
H       10.06895400      25.19086176      10.38665026       0.18838007       0.15530810      -0.04244063       0.49433851      -0.10201102       0.28720310
C        0.95167184      18.82490958      -0.53402623      -0.71399131      -0.83495117      -0.64450066       0.62805581       0.17976248       0.71543288
C        2.39347269      18.41780730      -0.86977775       0.58800915       0.32957530       0.31492359       0.41115803      -0.20360276      -1.68409681
O        2.76868132      18.10269850      -2.05015811      -0.16010755      -1.21446918       0.03322073      -1.07302415       0.57058561       2.24994278
O        3.28009900      18.44474869       0.12018056       0.05855657       0.25056316       0.18488931       0.59397590      -0.43910277      -2.01340103
H        2.69350818      21.75791503      -2.67295399       0.03351068       0.17742986       0.06909795       0.39521727      -0.01241148      -0.58635014
H        0.30903647      18.21291461      -1.09929259      -0.15122283       0.05920634      -0.08444127      -1.02078247      -0.87979728      -1.34186316
H        0.79146168      19.86380158      -0.85525188       0.16349409      -0.18394163       0.14881066       0.02416595      -0.01405224       0.13615325
H        0.56276299      18.64013930       0.49642385      -0.16670116      -0.22995317      -0.19524970       0.91838956       0.34080327      -0.35453260
C       11.56545419       8.61315328       1.67263980       2.09562701       0.85069339      -0.22997601       0.14089376       0.51357210      -1.80342484
C       11.56539585      10.01570421       1.09518419       0.30185655      -0.14745829       0.22770259       1.48565149      -0.50248122      -1.18202734
O       11.52497464      11.00260965       1.98798645      -1.29190800       0.24914177       1.27414798      -0.38595936       0.08615962       0.12091422
O       11.78361952      10.15310974      -0.13540995      -0.17286008       0.92097446       0.37370748      -0.68189776       0.39997470       0.89322245
H        6.73914622      15.46728284       7.89165879      -0.28104248      -0.17279712      -0.06835800      -1.27662992      -0.12366298       0.23047438
H       11.83601833       7.89191610       0.88630457       0.04518871      -0.12446726      -0.16133042      -0.15202621       0.16268998       0.09593921
H       10.61258191       8.40036250       2.06521996      -0.18865037       0.05516704      -0.12178252      -1.39585185      -0.38618499       0.61342269
H       12.29530439       8.57110841       2.41748986       0.14013291      -0.28502239      -0.16585499       1.22245967      -0.15436548       1.60870504
C       14.99312250       4.81990833      18.06312761       0.35667914      -0.85583738      -0.77563986       1.14665735      -2.99451399      -0.35031700
C       14.11692087       5.92464153      17.84002933      -0.29037768       0.91700535       0.11447471       0.33690730       2.47683764       0.24147695
O       14.41767185       6.98516661      -1.89840099      -0.63325102      -0.27933724       0.08978473      -0.31944013      -0.92001110      -0.31508622
O       12.96630444       5.83558465      18.45565928       1.49770884       0.26515900      -0.59087234      -2.32905531       0.78970176       0.44442761
H       12.79655081      15.66849208      23.84691781       0.07431168      -0.09961995       0.29258545       0.09438056       0.81080067      -0.14869219
H       15.84310611       4.79894201      17.34877583       0.16909276       0.14119211       0.44232471      -0.20567979       0.09865163       0.61108917
H       14.38286939       3.87759794      17.86194112       0.02390747      -0.13287630      -0.00796397       0.84684610       0.70061135       0.37882757
H       15.30022028       4.79900694      19.13810251       0.23557280      -0.26232642       0.44017159       0.15635806      -0.05093345      -0.68682528
C       10.46849570       3.88194495      -2.29724583       0.88433355      -0.61310959      -0.29497729       0.19987065       2.51653504      -2.12184978
C       11.22414089       2.86924965      16.04185200      -1.10431847       0.53725965      -0.26326128      -1.21926677      -2.62638164       0.76493168
O       10.80869705       1.67719093      16.24191436      -0.83857445       0.53553915      -0.09767578       1.23722577       1.30664885      -0.58894747
O       12.21278711       3.07406065      15.20128206      -1.00230949      -0.20345440       0.26574234       0.30551985       1.93274379      -0.10875067
H       12.43727568       4.12214811      15.00068129       0.13833013       0.15004372      -0.32685126      -0.42312929      -0.95632577      -0.35956424
H       11.06618727       4.47838177      -1.62175577       0.04561108      -0.37571537      -0.12684650       0.65290374       0.14780144       0.19899578
H        9.86430447       3.22653021      -1.73635696       0.17261974       0.01567692       0.05921847      -1.56645346      -0.27345511       1.02047777
H        9.86551187       4.66230685      -2.93674986       0.00835647       0.11193418      -0.01196214       0.96595287      -1.63484049       0.96195698
C       24.99113424      20.98300134       8.45524135      -1.40573440      -0.12221161       0.75195312       0.64073956       1.82953966       0.50126976
C       26.46431207       2.09859277       8.68166565      -0.19394718       1.45283736      -1.16363453      -1.51286876       1.53041553       2.00228238
O       27.29846556       1.23845293       8.22016313       0.18246317      -1.30331032      -0.11297168       1.39810133      -1.41840267      -0.98893559
O       26.77426314       3.08996819       9.37872131      -0.27181431       0.90955232       1.06389539       0.24987185      -0.08241328      -0.18523559
H        9.03546559       8.01482805       7.57226983       0.17654851       0.06488753       0.06230582      -0.28483719       0.06723097      -0.28717482
H       24.89082127      20.37340757       7.61885590       0.56795665      -0.08800030       0.04747804      -0.47884482      -1.25088167      -1.74568653
H       24.58888540      22.00085831       8.25408092       0.08072797      -0.33455128      -0.08175998      -0.27698219      -0.67683220       0.19249262
H       24.50822522       1.35786669       9.31213835      -0.03767281      -0.19672875       0.21054116       0.07504284       0.02264322       0.22732636
C       11.88718030       6.38982668       5.95187270       0.40075976      -0.03950943       0.08601643      -0.04796618       0.17967969       0.55852592
C       11.05633776       6.73743669       7.15655003      -0.69576291      -0.06931229       0.58839281      -0.10510767       0.78554904       1.70488751
O       11.70752586       7.03462455       8.24684312      -1.08613250      -1.25764331       0.21753883      -0.13040924      -1.10499573      -2.08524609
O        9.77290254       6.77070359       7.04663829      -0.05440380      -0.77036699       1.04422054       0.58575356       0.09825607      -0.03405295
H       19.68989979      -6.31903769       5.87105628       0.14577300      -0.33302792      -0.13552756      -0.53127015      -0.25039059       0.75425160
H       12.55775813       7.21492518       5.75775262      -0.09778256      -0.15653888      -0.14669399       0.56557620       0.51540476       0.08165928
H       11.22182249       6.36223101       5.10372815      -0.19607099       0.13525760      -0.25123478      -0.08922462      -0.71567065      -0.60430837
H       12.52231388       5.52041054       6.18199563       0.23173874      -0.22486506      -0.01038427      -0.27756980      -0.06467766      -0.41684940
C       11.68048168      18.36555471       6.45175951      -1.11023152      -0.43118571      -0.34522657      -2.06490850      -2.85124874      -0.39212251
C       12.51176771      17.11919513       6.02412368       0.49246099       0.11324056       0.77277653       1.21232557       1.40424275      -0.37884143
O       13.48688070      16.80706955       6.73473459       0.27776551       0.60491631      -0.52299996      -0.71159661      -0.34926850      -0.18026406
O       12.29206504      16.61259619       4.77040537      -0.35394356       0.09546414       1.03281871      -0.18979341      -0.50080729       1.55780542
H       12.90749240       5.28450731       0.14603031       0.14785324      -0.18759157      -0.07615361       0.24041416      -0.55605000       0.30621862
H       12.26354352      19.12151868       6.88950448       0.28419874       0.23918603      -0.28763540       1.08783352       0.93332630       0.61786342
H       -8.27287188      18.04837825       7.21407472      -0.18773055       0.04772563       0.08389648       1.03288198       0.23531757      -0.83312190
H       -8.03564188      18.74865557       5.61169171       0.20493118      -0.04051969       0.13241094      -0.23435476       0.23265955      -0.52772260
C       11.01392361      10.04149713      11.65502223       0.05308907       0.30016607       0.17275342      -2.09571075      -2.26289392      -0.66339010
C       11.49812633       9.38584781      10.34674449      -0.82612880       0.19348959      -1.36179468       0.47750884       0.24758822       2.52515006
O       11.19960688       8.09797110      10.30773473       0.33762355      -0.16853958      -1.37342214      -0.48875779       0.21210676       0.36624813
O       12.21570760       9.99685561       9.57076358       0.46741888       0.11525348      -0.00431098       0.31654048       0.18774378      -1.09904683
H       17.83032809       5.40859976      10.09732588      -0.10258958      -0.00232625      -0.09584663      -0.86837620      -0.17952821       0.09115300
H       11.62778936      10.81019006      12.00174176       0.00489581       0.23799423      -0.01437571       0.93694806       1.67147720       0.24141856
H       10.87042627       9.31757421      12.47154698      -0.11948688      -0.13975681      -0.02214246       0.52018237      -0.29370672      -0.26692626
H        9.94986698      10.28145170      11.48272914       0.15924933       0.43169209      -0.08954040       0.21714376       0.80905783      -0.06685612
C       10.70886372      17.21848758      16.03353882       1.36968371      -1.36192304       1.23413919      -0.53424728       1.48272920       1.08905888
C       10.41373126      16.21036049      15.00969819       0.25531760      -0.92461574       0.10548163      -1.67814374      -0.74054724      -0.06485087
O       -9.80195467      15.54826799      14.94429292      -0.61500574       0.34656962       0.10428228       1.42201054       0.70086437       0.02009743
O       11.40714171      15.98306376      14.16980492       0.95982445       0.37937217       0.85839984       1.21195602       0.03532082      -1.14736998
H       12.12238707      16.71240176      14.28885879       0.12483165       0.20325802       0.12655648      -0.08270743      -0.19172347      -0.37036479
H       11.42210706      18.06573323      15.74448387       0.05552049       0.08028169       0.10187449      -1.32948542      -1.10138726       0.26096284
H       11.17365530      16.64439484      16.83265839      -0.20003611       0.15168722       0.04573403       0.43396366       0.02304491       0.50693947
H       -9.42133067      17.55543012      16.46193350       0.06666340      -0.03363074       0.14119244       0.80206555       0.25988701      -0.37486094
C        3.48400033      16.53866150       9.51398551      -0.29143833       0.14203015      -1.02658239      -0.54877031       1.33756280       1.02486455
C        3.58512827      18.08444575       9.80990630       0.30768288       1.24371345       0.38637580      -0.06612530      -1.48941660       0.76134932
O        4.42457797      18.43254101      10.64120186      -0.82573173      -0.23498437       0.83704467       0.33861315       0.65386057      -0.16974020
O        2.71246349      18.94909534       9.29729747       0.54446302      -0.11708936      -1.61241302       0.51350343       0.34744310      -0.51790291
H        1.85354676      18.51559265       8.87324036       0.07085008       0.27369800      -0.13513195       0.43574181      -0.39678508       0.41997647
H        4.14085883      16.26564760       8.67759555       0.10519853       0.24231156      -0.13854231      -0.04308453      -0.07332668       0.18104750
H        2.43260737      16.24594725       9.36393736      -0.26342307      -0.25318758      -0.06125512       0.30222055       0.05249861      -0.33991438
H        3.80568773      16.07196315      10.48667756      -0.13446735      -0.03272453      -0.01077884       0.10159206       0.09291512      -1.03485751
C        1.35295574       7.81443012       1.07995183      -0.64026287      -0.11447546       0.60432615      -0.90753680       2.46340632       0.36621913
C        1.91832284       9.20725180       0.75638135      -0.18523872       0.40541927       0.28986327       0.67989957      -0.00725007      -0.79237843
O        1.15478977      10.28693795       0.94951513       0.40260653       0.04573275      -0.09793350      -0.60520363      -0.08560956       0.03998327
O        3.02678969       9.32496322       0.22813124       0.48439875       0.57328092       0.24730003       0.36927924      -0.22748631       0.12535852
H        1.66020905      11.14770377       0.54243329      -0.02398803      -0.11584460       0.06093483      -0.14170182      -0.20938066       0.90748644
H        1.96221892       7.14745411      19.71043332      -0.07799391       0.14338246      -0.05862623       1.09984386      -1.38764286      -0.78301048
H        0.33455408       7.76943987       0.67850768       0.32753107      -0.08537352      -0.23672456      -0.18257627      -0.14438972       0.38525772
H        1.40454820       7.64082779       2.16042665       0.49995750      -0.16065985      -0.00297648      -0.22478753      -0.05679658      -0.04973741
C        4.61115808       8.38091597       9.63359005       0.26508059      -0.06685230      -0.13538021       1.35664034      -1.16654217      -0.99677223
C        4.88016868       7.13724710       8.80556241       0.30173492      -0.01020987      -0.04612481       0.95074791      -3.08993244       0.68403852
O        5.66608996       6.21777574       9.22934462      -1.08216363      -0.09105168       0.82509889      -0.95545083       2.00175881      -0.43265972
O        4.21595745       6.95337002       7.66133729       0.85752840       0.10170609       0.01785810      -0.22332442       1.41460490       0.40500450
H        4.76300128       6.31485586       7.02244897       0.19224374       0.02221984       0.00570213      -0.04582125      -0.27669010      -0.15115967
H        4.89796030       9.21724218       9.00731433       0.04392211       0.01146315      -0.29889912      -0.12020779       0.54635322       0.01996783
H        5.28167498       8.26742148      10.48358949      -0.30726040      -0.39718359      -0.01884934      -0.23300281       0.41096514       0.32988510
H        3.58262524       8.47356383       9.88197365       0.22481913       0.14907135      -0.03521647      -1.03131902       0.15335114       0.36595276
C       10.09747127      14.79543453      18.84065530      -0.28939158       0.47919332       1.74667428       0.15749446       1.41080582       0.68359888
C       10.32477160      14.09261707      20.18144062      -1.08685740      -0.12103298       0.48706837       0.27714321      -1.24425542      -2.29032159
O       10.53454733      14.71718551      21.21589617      -0.43129927      -0.93154548       0.07409294       0.28209639       0.21340668       1.18345594
O       10.28785662      12.79734317      19.98075539      -0.28597102       0.46996370       0.20301178       0.14340308      -0.18871474       0.80311108
H        4.91430817      12.45333850      11.06963146       0.05966128       0.11048531       0.24598465       0.03806211      -0.13601458      -0.35238373
H        9.00075817      14.90840949      18.73615273       0.03433364      -0.20687264      -0.02367592       0.33697304       0.34575623      -0.14058539
H       10.45044952      14.21390073      17.97952482       0.32833577       0.17129066      -0.07190172       0.09818682       0.10707142       0.20399153
H       10.62747670      15.79035918      18.95009068       0.09941355      -0.01341585       0.14792798      -0.84158552      -0.76237231      -0.59594166
C       16.53187683       1.35120962       1.02547294      -0.15913051      -0.41402035      -0.38089085      -0.98617512      -1.94296598       0.03062403
C       16.15634283       0.74572959      18.81040680       0.75287235      -0.92468786      -0.44015244       1.93529820      -1.17466223       0.62989020
O       15.77502315       1.41371389      -1.29108342      -0.25518759       0.86360148       0.65327623      -0.31394288       0.23233113      -0.06181228
O       16.42926795      -0.58491125      18.66084447      -0.17694735       0.36912254      -0.09101696      -0.65149599       1.18002999      -0.86659372
H       16.73614688      -1.06852825      19.50792808       0.04601834       0.12660260      -0.03026218      -0.00187539      -0.11878136       0.58792388
H       16.39973573       2.38358793       0.90208943      -0.21321366       0.07225514       0.19618504      -0.10173167       1.81943905       0.18894020
H       17.52361166       1.09081822       1.42659286      -0.11918694       0.08092674      -0.05560759      -0.10706364      -0.03322887      -0.40503183
H       15.78670785       0.95557362       1.75964587      -0.17007113       0.06489268       0.12851780       0.37816232       0.39757434      -0.19597211
C       -0.92525395      22.63895115      -3.27988608      -0.22733630      -1.31754474      -0.18756602      -0.03082997       1.45190561      -2.93895626
C        0.48022730      22.76849329      -2.91221577       0.49242927       0.57036746       0.14253847       1.91102350       1.52764797      -1.06815588
O        1.11616332      23.85000108      -3.30394389      -0.98709773       0.22710892       0.33730547      -0.19567484      -0.81377780       1.04710805
O        1.11171272      21.80447615      16.72135665       0.44912818      -1.29115490      -0.30457675       0.31971717      -0.64463305       1.18111992
H        6.37194001       7.02063745      16.98894960      -0.19158019      -0.23853450      -0.01699718       0.83305353      -0.17617048      -0.02639008
H       -0.86109282      22.24122189      -4.32814419      -0.17383548       0.25117064      -0.06052244      -0.39018083      -0.70937401       0.73660910
H       -1.40103932      23.58649607      -3.56887708      -0.13619464      -0.00937107      -0.25623432      -0.05455991       0.15812349       0.83736700
H       -1.47045070      22.06870558      -2.60957862       0.09749380      -0.05024729       0.23034138      -1.39775372      -1.43026888       1.15707874
C        7.97672817      16.59303028       6.40587608       0.00566363      -0.26561844       0.09255888      -0.42693937      -0.45057803      -2.95318675
C        6.55833773      16.03230613       6.05388479      -0.37123732       0.39992760      -0.24814014       0.92859423       0.81076682      -0.08221447
O        6.00349227      15.40494807       7.09128777      -0.38226842      -0.35744799       0.40822848       0.64354610      -0.13467747       0.40783754
O        5.98056402      16.21084168       4.97565554      -0.36646907       1.30192236       0.40951146       0.08886254      -0.16615000       0.45838177
H        2.55841820      11.59704515       4.90745858       0.21393330       0.04331986       0.03132459      -0.34836045       0.22749484      -0.44508269
H        8.53381773      -3.18812005       7.05327890      -0.22119703      -0.10293531       0.07466696       0.51499438      -0.75335610       0.84335428
H        7.85430139      17.53085760       6.87675483      -0.15629141       0.41403755       0.15373375      -0.13523291       1.38254869       0.74442136
H        8.56083928      -2.38965144       5.46063754      -0.24490585       0.10409288       0.05037171      -0.57048273      -0.06801505       0.64325142
C       14.68843554       7.42711571      22.33580803      -0.39978132       0.47274099      -1.09844835      -1.51490283      -0.98288417       0.31285810
C       15.66022260       6.34758430       2.91991986      -0.55625539      -1.18411623       1.29696367       0.73151535       0.01156878      -2.49450016
O       15.86298949       5.36242530       3.62043453      -0.02400215       0.59941435      -0.55718158       0.10653055      -0.42134583       0.53741157
O       16.29458205       6.48545858       1.71226922      -0.67925507       0.61228100      -0.04496573      -0.28638446      -0.04885137       0.51072699
H       11.44733694       7.67484108       9.37730939      -0.08089387       0.13414227      -0.14115446      -0.17318401      -0.03522336      -0.27669728
H       14.72871112       8.15850224      21.53549237      -0.12104045      -0.10777802      -0.12778838      -0.26462400       0.46921074       0.17135924
H       14.97438151       7.81564621      23.30981579      -0.19659203      -0.14736328       0.10524462      -0.45506153       0.49160215       0.36650634
H       13.64940736       6.93165439      22.34192267      -0.11625595       0.11674271       0.17592261       1.24830449       0.84301215       0.27475429
C        5.22736935       7.00102319       1.15104890      -0.43016898       0.28194285       1.03522812       1.02647948       1.01576614       1.01393962
C        5.92192656      24.82994678       0.99070657       0.80668582      -0.59855728      -0.14795491       0.09457934      -0.69576120      -0.94429487
O        7.13839778      24.75338516       0.72271635       0.56056629      -1.15892579      -0.31554874      -0.20604348      -0.04034972       0.40097091
O        5.12586775       4.61397787       1.03535655       0.13417767       1.03213095       0.03659287       0.42716742      -0.75033724      -0.17839879
H        6.83491211      10.55675103       3.36532992      -0.09801785       0.03328317       0.12446833       0.45957264      -0.18710661       0.02894548
H        4.25593386       7.06360671       0.65248536       0.04259857      -0.25768950      -0.21926522       0.41060504       0.21364081      -0.60733652
H        6.01730234      26.94271645       0.91432389      -0.10824048       0.14273425      -0.01490343      -1.42883587      -0.74322897      -0.16320992
H        4.94980821      26.35720245       2.19813921       0.07515678      -0.19121873      -0.03640888       0.14339916      -0.27937552       0.19210613
C       19.25171532      15.99218581      15.48873619       0.92684372      -0.31866888       0.69390792       0.62711602      -1.85066366       2.06690383
C       17.99204138      -3.45721193      16.25422694      -0.73299993       0.32734441       0.77963682      -2.48085332      -0.13204098       0.50631845
O       17.81330160      -4.23552002      17.21514774       0.85870839       0.41252693      -0.13125754       0.95443046       0.80145717      -1.13115919
O       16.92567528      -2.74810415      15.71928337      -0.70453068       1.30847436       0.40546983       1.21269238       0.03401268      -0.00752544
H       16.02942263      -3.11018192      15.96980641      -0.06411420      -0.06836437      -0.24242256      -0.27161959      -0.55286574       0.57576168
H       19.70456000      16.85799997      15.93850429      -0.36533976       0.11562354       0.11572318       0.53747559       0.65095663       0.57337058
H       19.10666630      16.24808433      14.47339205      -0.01375246      -0.00755744       0.04936856      -0.33303893      -0.15124926      -1.32440758
H       19.91940945      15.10320303      15.69824394       0.22797012      -0.00534519       0.20225446      -0.39030176       0.92862594      -0.62951863
C        8.12160762       7.37579016       3.62021836      -0.59736438      -1.91482899      -0.06232876      -1.76946795       0.46064937      -0.53968751
C        7.74426436       8.72197357       3.01709533      -0.35166246       0.15038111       0.88637209       2.41268921       0.77170527      -0.77064914
O        8.37808633       9.13634005       1.98111053      -0.35220397      -0.63870837      -0.12430358      -1.98204613      -0.31998920       1.29702270
O        6.95359497       9.46873358       3.78744167       1.61950786      -0.12972681      -1.06834732      -0.12914479       0.57039088      -1.06581271
H        9.66887794       0.42790883       2.03730386       0.13833399      -0.03868347       0.06812450      -0.08366448       0.62592053      -0.06934594
H        7.14437050      25.92604590       3.64301659      -0.23772968       0.02141245      -0.08263507       1.55541539       0.47168279       0.41736171
H        8.54364617      26.76605771       4.59000842      -0.15670536       0.20176005       0.22576045      -0.33434418      -0.20097548       0.82492661
H        8.94042804       6.87574067      22.25595060       0.12431312       0.36376107      -0.13333259      -0.25143310       0.02937753      -0.64441973
C        7.16309857      19.83535889       4.20900344      -0.57676551       0.49949156      -0.72021253      -1.11395025      -1.16250765      -2.38030672
C        8.23295721      19.25448214       3.28455039       0.18240837      -0.35976082      -0.08101493       0.81172389      -1.51148629       0.57755655
O        8.56197907      18.04083058       3.30108222       0.88839630       0.46399563      -0.23952237      -0.62467444       1.63836694      -0.00002784
O        8.87475190      20.14655213       2.50254165       0.78357089       0.65281558       0.83588916      -0.29780009      -0.73268342       0.52984858
H        5.65583394      22.77737403       0.59907657      -0.08424899      -0.06241600      -0.14067711      -0.16516930       1.01561189      -0.00398292
H        6.72845345      -0.04928739       4.86884234       0.04958008       0.07159019      -0.29953978       0.20855068      -0.65435827       0.35978699
H        6.30745526      20.14857557       3.56111526       0.09144384       0.18314652      -0.33008755       0.42154771       0.07972308       0.21224147
H        7.48473582      20.67166829       4.73477418       0.11538984       0.17297914      -0.00056309       0.79505122       1.74208808       1.07509875
C        7.18518891       9.72989574      12.97868177       0.55409850      -0.57563051       0.37051087      -0.12910089      -1.01915145       0.40227771
C      -12.54538198      11.11486801      12.75092613       0.33141515       0.26966019      -0.27463993      -0.00649798       0.07505584       0.24659407
O        6.42794909      11.57173985      11.59710335       0.76176218      -0.41061577      -1.03241279      -0.18067679      -0.09085715       0.40668997
O      -12.79540010      11.77305076      13.85882249      -0.34451902       0.13848573      -0.22713294      -0.05988882       0.34595487       0.12185198
H      -13.11320845      13.00162432      13.79715615       0.29528732       0.14130208       0.21339827      -0.70619702      -0.07485664      -0.79752469