640
Lattice="18.700606 0.0 0.0 0.0 18.700606 0.0 0.0 0.0 18.700606" Properties=species:S:1:pos:R:3:momenta:R:3:forces:R:3 energy=-80124.984375 stress="-0.021214250475168228 0.001732856733724475 0.0007901999051682651 0.001732856733724475 -0.01700074039399624 -0.0015409629559144378 0.0007901999051682651 -0.0015409629559144378 -0.024254167452454567" pbc="T T T"
C        9.91221912       5.17997504      21.74171372       0.31082967       0.23415345      -0.52971099       0.78918386      -0.22539650       0.08752551
C        8.71382597       4.27054106      21.60310645      -0.05381792      -0.62127267      -0.07694389       0.40715301      -0.30704665      -0.57235664
O        7.57010664       4.83053736      21.32930601      -0.22202840       0.23107731      -0.12964687       1.02958846       1.64311910       0.15482149
O        8.90805195       3.04669675      21.68671903       0.70571209      -0.67887854       1.00702164      -0.51516593      -0.50855035       0.38378805
H        4.83134483       5.78081129      23.50158039       0.21139744       0.01528789      -0.12286121       0.04661685      -0.12763941      -0.68402243
H       10.35216750       5.43990188      20.74436081      -0.04094676      -0.04499435       0.07848046      -0.43441635      -0.16628905       0.50676006
H       10.69733850       4.57011540      22.29139426      -0.33944933      -0.04458293       0.08276366      -0.71571600       1.12024117      -0.40752590
H        9.60764000       6.11204634      22.23655192       0.02551194       0.10749319       0.19881523       0.37049997      -0.13809302       0.04705836
C        2.97771695      18.61987302       6.23399825       0.49925761      -0.03979174      -0.68741696       1.61759353       1.98926771      -1.12535465
C        1.94645903      -0.75934761       5.42724402      -0.16721288      -0.35694354      -0.42246083      -1.72893548      -0.45461655      -0.65549177
O        2.09581696      -1.89810386       4.96582950       0.15562749       0.11505863       0.74378683      -0.13651419       0.23213398       0.36177105
O        0.78037046      -0.06438462       5.19258808      -0.74681910       0.93481445       0.78672344       1.31693149       1.33928430       0.54768157
H        0.97156070      19.74801406       5.35575592      -0.21289537      -0.19651679       0.24779883      -0.34985498      -1.61417770      -0.34622979
H        3.02891259      18.41449545       7.27609410      -0.29354926       0.17060344      -0.07096213      -0.82180667      -0.28415763       1.21081829
H        2.93371993      19.74927541       6.08877740      -0.16494799      -0.23641749      -0.00437250       0.02898044      -1.26687396       0.24415833
H        3.96397147      18.25470263       5.90265024       0.06816994       0.16246673      -0.27336189      -0.12030052       0.17825750      -0.29850543
C        6.48874409       8.04378193       2.48685118      -0.30965268      -2.09791440       0.63796027       3.77278733      -0.96920890       3.59097767
C        7.78360583       8.83811745       2.45209992       0.19606531       0.36545130      -0.61521094      -0.57183170       0.47920394      -0.13039756
O        8.44872989       8.81442852       1.30260288       0.23566594       0.51617398       0.27053688       0.41248852       0.41753644       1.13143849
O        8.12165734       9.52024156       3.46247400      -0.79624639      -0.58995089      -1.86130509       0.00090104      -0.34475157      -0.94578075
H       14.02200472      20.00790287      -0.20868930       0.04040667       0.02085386       0.17349176      -0.49256462      -0.62583292       0.45779285
H        5.77648583       8.28072227       1.84370174      -0.01541411       0.09453432       0.19122727      -3.35221291       1.87248051      -2.96713996
H        6.17570918       8.17381310       3.54257649      -0.05051982       0.03795273      -0.50068995      -0.29248360      -0.56993353      -0.68638563
H        6.68518702       7.00080642       2.22565122       0.01077213       0.03564012      -0.01882779       0.23446009      -0.36138198       0.51956230
C       14.99180829      14.52442240      15.63968247      -0.49966343      -0.95568723       0.43540746      -1.61899781       0.84659451       1.18746924
C       14.12715937      13.75592672      14.59519568       0.33372983       0.36280098       0.05624136      -0.39084917       1.04287994      -0.28210771
O       14.14573176      12.52056340      14.53480632      -0.80174757      -1.01673863       0.82048798       0.59769857      -1.02728426       0.42075029
O       13.29314919      14.41508267      13.80543481       0.80706682      -0.62755997      -0.91925769       0.48900163       0.37959230       0.01039416
H       13.49100954      15.59827279      13.42268566       0.29541052      -0.15529908      -0.11547046       0.48271033      -0.30523196       0.27568439
H       15.05989139      13.85866211      16.55559755       0.06710435       0.01826414       0.06597449       0.34569204       0.73770523      -1.02810407
H       14.47210759      15.50367915      15.99553978      -0.02400261      -0.09784498       0.03784504       0.70470709      -1.56653583      -0.64865941
H       15.97088339      14.87564692      15.28655771      -0.35365592       0.06176423       0.07645239       0.08194914      -0.41678581      -0.06213950
C        3.03106217       2.53278809       9.02988043      -0.26748596       0.14678694       0.61326002      -0.52728528      -0.57747895      -0.32166249
C        1.65436605       2.10088112       9.43920191       0.12254758      -0.53784396       0.38317887       0.81677103      -2.40159845      -0.89556074
O        0.93845966      21.68788417       9.87300226      -0.16227896       0.20486458       0.37078481      -1.95907784       1.18774903       0.92178702
O        1.31586072       0.79503412       9.30105596      -0.18902772       0.51601798      -0.32624701       0.63630152       1.88599968       0.30375671
H        6.71082180       7.79649953      13.56733411      -0.06314832       0.28121461       0.40613486      -0.21090543      -0.47135049      -0.02537059
H        3.51583573       2.82678917       9.96331676       0.15818069       0.11242377      -0.00050270       0.41968143       0.02177288      -0.17714944
H        2.83911213       3.42842340       8.41066561      -0.00428487      -0.07481718      -0.08164340       0.77177656      -0.43635115       0.01686893
H        3.50002471       1.68100541       8.52018047       0.30499664      -0.02663766       0.00553511       0.37026370       0.57975399      -0.04709062
C        5.20660946       2.82499247      15.86796712      -0.07415432       0.16484627       0.92572231      -0.41986659       0.62100953      -1.64097691
C        5.71338985       3.93247075      14.92890033      -0.41894519      -0.59073507      -0.40502957       0.22135843       1.20406747      -0.18561253
O       25.30924614       3.62005100      14.06799376      -1.04663356      -0.25871870      -0.71938558      -1.40187573       0.32504916       1.02628183
O        5.26391057       5.19174372      15.10862818       0.25461233      -0.28335859      -0.16345902       0.54050422      -2.81273961       0.08059415
H       15.42788802       4.19285976      15.55401283      -0.00342520       0.08781755       0.00622249      -2.77349496      -0.83974671      -1.76066065
H        4.36652145       3.09200432      16.45887334       0.00182535       0.24370548       0.19293137      -0.59206653       0.74299496       0.78797561
H        6.01441453       2.53569512      16.48034351       0.10315212      -0.18108893      -0.06272517       0.94240862      -0.44969597       0.97570503
H        4.86784874       1.94388724      15.32723452      -0.06488789      -0.09179638      -0.21989084       0.26181927      -0.28628302      -0.56107867
C        2.84713634       5.38221901      24.90213506       0.08118916      -0.17281859      -0.23493269       0.88318878       2.38178158      -1.96128726
C        4.32085298       5.35903797      25.30258243      -0.00233634       0.56377007      -0.18143071      -1.00634944      -0.53017503      -1.21305251
O        5.27971929       5.63035108      24.37557185      -0.26141254       0.05093966      -1.47235529      -0.15345919       0.37080550       0.34256589
O        4.63620383       4.98151429      26.39959958      -0.67559997       0.81753622      -0.58467166       0.80869710      -0.24106115       1.69901323
H        6.53650782       2.24582753      22.38122086      -0.09080350       0.17208668      -0.06157429      -0.34453511      -0.77759480      -1.01001573
H        2.25981712       5.15538753      25.75167061      -0.30865533       0.12708174       0.04163072      -0.77299541      -0.41520262       0.71808511
H        2.63162515       4.78930425       5.30565967       0.24680444       0.09023480      -0.29393183       0.04632699      -0.48499307       0.34248820
H        2.57586575       6.42262732      24.51054540      -0.11048470       0.04733686       0.07452770       0.31149936      -0.89399087       0.73091084
C        1.44641840      16.12582150      12.17446472      -0.62097149       0.20431085       0.20111989      -2.20397067      -1.84241831      -2.73134637
C       -0.12720378      16.10741956      12.28427036      -0.81832825      -0.13617491      -0.18933085       0.61934650      -0.36319679      -0.10165509
O       -0.79444770      15.19200580      11.78348390      -0.49333032      -0.12081867       0.52729269       0.26323271       0.61984515       0.21405900
O       -0.74393362      17.09311955      12.97500277       0.93499507       0.53264069      -0.07235616       0.73697615       0.61124545       0.00446853
H       -0.07715745      17.89870061      13.28860661       0.17773487       0.13613345       0.00464350      -0.06119794      -0.77141607      -0.36110467
H        1.81232005      15.92880097      13.12816817       0.14368566      -0.03978713      -0.02402747       1.03459442      -0.11872357       1.88103509
H        1.79865256      17.06990877      11.76704273      -0.23411097      -0.51195561      -0.09732906       0.20660703       0.12404652      -0.06038892
H        1.70135728      15.19067815      11.51385590       0.06242238       0.17873957       0.36141850      -0.30198547       1.92569423       1.09651852
C        4.46567375      13.40241817       9.90193360      -0.17805514      -0.04268176      -0.38427111      -0.32379133      -0.30491996      -0.83821964
C        3.35564811      12.71386012      10.65174435       0.40774620       0.39680013       0.92424178       0.47175550       0.19906431       0.81175739
O        3.35138689      13.05211073      11.99637619       0.05422882      -0.03879392       0.39245250      -1.94743288      -0.66468740      -0.87880206
O        2.56636142      11.88574996      10.20454016      -0.32515824       0.03224950       0.10553973      -0.15596139       0.33938041      -0.22244579
H        2.38845475      12.70062252      12.27041112      -0.05936701       0.13854649       0.05958431       1.34525442       0.48935026       0.58309591
H        4.88419638      14.25844438      10.44903034      -0.11110162      -0.06033257      -0.13768724       0.18094610      -0.50009263       0.12998593
H        4.06961175      13.88387574       8.95496980      -0.21825018       0.03721350      -0.17252171       0.23502968      -0.89222592       0.64293635
H        5.17861079      12.53084448       9.68292081      -0.04658487       0.21135373      -0.09972448      -0.54574716       1.53128362       0.01632471
C       12.35977549       2.24298423      16.16908724      -0.59129741       0.76425559       0.64743436      -0.91351837       0.69801170       0.11339901
C       13.16141669       3.52912596      16.00581655       0.61955332       0.19042728       0.25840042      -0.08105022       0.18741381      -0.12669639
O       13.94833844       3.62835853      15.02596842       0.20014597      -0.83168579      -0.07559857      -0.08579697       0.38678828       0.14455274
O       13.00610514       4.49774473      16.89793297       0.16434736       0.42352689       1.34674115       0.32515767      -0.57557946      -0.58001435
H       13.55728461       5.67401380      16.57790202       0.05292617      -0.13863406       0.17714967       0.00913143       0.19537330      -0.21135224
H       11.74640138      20.68872760      15.27720969       0.26198656       0.07560169      -0.00843386       0.47973892       0.23914556       0.22462881
H       11.66880262      21.07826243      17.01763029       0.09701813       0.27323052      -0.27018068       0.07670837      -0.21027417      -0.21006162
H       13.01309720       1.40214439      16.39337579      -0.15885643      -0.45312782       0.24497217       0.28171313      -0.07343061      -0.03725883
C        7.11859807       1.84670287       0.43158479      -0.05945642       0.47311542       0.01181014      -2.91040468       0.24410951       0.86465198
C        8.11835223       1.00867554      -0.21687898      -1.40374871      -0.18381441      -0.19494330       0.18598872       0.91593319      -1.07321918
O        8.16798287      -0.21482321      18.62643392      -1.75958442       0.48660105       0.01979498       0.45611525      -0.36438859      -0.08508953
O        8.93882612       1.69610234      -1.00551002       0.73159392      -0.94565876       0.09735286       0.59978247       0.34261984      -0.29732153
H        8.78792025       2.83747017      17.66889819      -0.07448967      -0.16200136      -0.03538751       0.64732301      -0.80269706      -0.23128408
H        7.57959364       2.43470200       1.22753806      -0.08370312       0.07179675      -0.20533107      -0.06510848       0.13741124       0.23577134
H        6.29422662       1.22979832       0.83413191       0.15535977      -0.08466342      -0.14938237       0.60512894      -0.07456620       0.42377466
H        6.50851431       2.53283602      -0.20399042       0.20926779      -0.24793712      -0.04542736       1.03302479      -0.13177738      -0.06044203
C       12.79528829       5.36803426      10.44702329       0.75627307      -0.92346026      -0.98851258       1.19032764      -0.80828357      -2.05667472
C       13.17711928       3.86998971      10.65739962       0.42829206       0.36603713      -0.95945137      -1.56734490       0.97778970      -0.56317413
O       12.45973770       2.97833152      10.16178621       0.25535731      -0.06781050      -1.11256543       0.72700304       0.05652165       0.44906157
O       14.21989081       3.62613670      11.43855560       0.07379140      -0.44479377       1.12846440       0.70651543      -0.17171085      -0.13572663
H       14.93598625       4.45839725      11.60976116      -0.04885274       0.09857377       0.07366109      -1.22771513       0.10304494      -0.04812646
H       13.43062868       5.95087868      11.10629534       0.25317701      -0.09018315       0.04563924      -0.02673787       0.59126222      -0.12810823
H       11.74953346       5.56454775      10.62671359      -0.19388937       0.04413577       0.20031107      -0.59031355      -0.15092933       0.31916681
H       12.94553778       5.64732802       9.31136991      -0.07946164       0.16645028      -0.14852112       0.03941765      -0.43781114       2.08580971
C       17.21202999      19.05737295      -2.22811391      -0.35614347       0.27440405       0.46446407      -0.10836679      -0.05149081       0.74353898
C       15.75936082      18.78656257      -1.62203228       0.42234336       0.42689729       0.01652545       1.79820848       1.20834589      -0.53420234
O       15.06031988      17.79942415      -1.99261655      -0.88768097      -0.00222667       0.04593671       0.18367004       0.04540050       0.30147165
O       15.45607795      19.67372207      -0.74692583       0.23331638      -0.70845668       0.43134102      -0.87316859       0.06716231       0.14303702
H       12.45600250      27.61390451       4.46614289       0.19123125       0.19238694      -0.11071594      -0.88768238      -0.24016356      -0.24117586
H       17.27693109      19.32167732      15.40772745       0.00878254       0.13957862       0.50705885      -0.28960007      -0.23032168       0.13162136
H       17.82822975      18.17058684      -2.06685984       0.13618542      -0.11183464      -0.05577552      -0.13097040      -0.35273400      -0.15492752
H       17.76281760      19.83002966      -1.63289327      -0.25638790      -0.05588550      -0.11668717      -0.70919436      -0.33094341      -0.37957168
C       -0.16986511       8.40001956      18.06329776       0.24571618      -0.11291325      -0.40737314      -0.74887520       0.18672600      -1.95994401
C       -1.31209344       8.29461313       0.29811992       0.79128211       0.30609915       0.21888676      -0.59576583       1.54703736       0.16491807
O       -2.31091931       9.15955509      -0.00294749      -0.03797953      -0.15974968      -0.06393822       0.39677763      -0.36983895      -0.08433330
O       -1.29870112       7.60112567       1.31421882      -0.84100761      -0.35654192      -0.17890298      -0.10152501      -0.53005725       0.45514861
H       -2.98196633       9.27370409       0.74505797       0.20594069      -0.05463660      -0.12216096      -0.32806519      -0.00668377       0.06270108
H        0.23768250       7.40333374      17.96564399       0.20397808      -0.08383277      -0.16706803       0.68025303      -0.14890516      -0.05401190
H        0.54938269       9.14439955      18.37001890      -0.03806498       0.19021180       0.14937605       0.59306580       0.10176055       0.70104557
H       -0.48781174       8.79811131      17.05440504       0.07740619      -0.01497495      -0.17587758      -0.01675601      -0.59202361       0.76987898
C       11.18398717      11.37393768      13.81108385       0.09379958       0.11946413       0.41722784      -0.90017253      -0.15206710       1.13751078
C       10.23700266      11.01510272      14.92411033       0.24293099       0.35653554       0.29150262      -2.67751598      -0.40064362      -0.89519691
O       10.50279878      10.44411995      15.96644396       1.15888660       1.17566950      -0.71212682       0.74539644      -0.00339420       0.66927099
O        8.88229754      11.24545931      14.59538361      -0.01457614      -0.24777826      -0.36857506       1.56802130       0.47985312      -0.41388083
H        8.24063693      11.25985132      15.41414178      -0.01940411      -0.10863880      -0.08427012       0.24792346      -0.29674220       0.31326616
H       11.28840465      10.52442372      13.15640065      -0.00120812       0.11799158      -0.07594470       0.00075605      -0.39477533      -0.66311085
H       12.11733404      11.56481805      14.27646099      -0.04618952       0.15088064      -0.13219712       1.38502085       0.20930947       0.35425648
H       10.86924976      12.27128264      13.31977162       0.08440061       0.17699561      -0.06555516      -0.35780895       0.40383402      -0.66618657
C        3.46971504       1.31533395      -0.49051724      -0.13924299      -0.18502772       0.02718759      -0.76443118      -0.21996713       0.02527913
C        2.32310870       0.31631745      -0.55576153       0.01727129       0.02282652       0.15203075      -0.72499263       0.16166067       1.54386938
O        1.15861126       0.69978406      -0.10967749      -0.50862510      -0.21598901       0.86245372       1.79036617      -1.40940952      -1.10761368
O        2.71210940      -0.89706197      -0.93294884       0.07612919      -0.21396113      -0.60119678      -1.65710008       1.64662111       0.75012076
H        0.00222450      -0.25502853       0.72635556       0.20203304       0.00036247       0.19136964       0.06002632       0.04744250      -0.33347133
H        3.78013107       1.41096635       0.57909181       0.03410854      -0.11566361      -0.25616026       0.07105654      -0.22554602      -0.77186871
H        3.12535295       2.30285481      -0.84162669       0.02030637       0.01386497      -0.19603994       0.14327508      -0.24363442       0.11353037
H        4.23525544       0.86054318      -1.11952076       0.12924002      -0.04500751      -0.05571035       0.50327313       0.47986442       0.19500515
C       14.48122654       4.97049288       2.77720357      -0.63453970      -0.03503386      -1.26799365       1.59265697      -0.67912716      -1.89081860
C       14.99831936       3.55172953       3.06896131       0.07900800      -0.32091513      -0.01595237      -0.52841383       0.10530818       0.65982652
O       15.44101866       2.83400364       2.11585361       0.84047105       0.31960590       0.60397917       0.13677156       0.56146538       0.89510882
O       14.86891076      21.89475045       4.30939085      -0.12513983      -0.54016011      -0.17900576       0.26885861      -0.42902839      -0.47828150
H        8.69103042      16.60854976       4.75456665      -0.07651739       0.09104635      -0.04865616       0.52056026       0.64145100       1.98234153
H       15.24557265       5.40670464       2.05257126       0.00494920       0.09165696      -0.18432947      -0.95054430       0.01540583       0.83023345
H       14.33203102       5.58186533       3.65917119       0.20092836      -0.13085737       0.31040603      -0.02132844      -0.08228403       0.21960156
H       13.57077999       4.78975471       2.19726791      -0.03210128      -0.32654092      -0.16192062      -0.29695973       0.49448037       0.13331649
C       17.38188578       4.06742117      12.26748452      -1.12260455      -0.65058811       0.61170161      -0.85465336      -0.13040400       0.15967238
C       16.84800403       5.48267304      12.06355916      -0.10047185      -0.36011174      -0.74881147       1.71830428       1.19547176      -0.48786736
O       17.70317238       6.43476657      11.91159532      -0.89862513      -1.14754960       0.05475080      -0.83548534      -0.50811136       0.67105377
O       15.58863171       5.69043642      11.92425028      -0.28506523      -0.10894003       0.37936055      -0.28429866      -0.70006776       0.32744378
H       17.00575751       8.04756654      11.61414123       0.02057642      -0.18668872       0.00931967       0.96494806       0.50344038      -0.83480966
H       18.10450307       3.86113413      11.48366651      -0.32373408       0.09321755      -0.08620358       0.00240371      -0.12778550      -0.60293037
H       16.50120200       3.39568871      12.19163237      -0.05354538      -0.09037514      -0.14320879       0.86670029      -0.08195539       0.24976766
H       17.97395077       3.88752562      13.18849650       0.30241010      -0.16290108      -0.13152629      -0.66495526       0.33402687      -0.02681687
C        4.53585289       6.42752566      18.21495333      -0.79531478      -0.81596328      -0.15038778      -0.19307435       0.78656799      -0.87159330
C        3.24792151       5.85097010      17.70310695       0.03883895       0.24609293       0.53914481      -2.62636566      -0.70681000       0.40420464
O        2.18408118       5.78464884      18.37778252      -0.21058170       0.88808220       0.22049507       1.42642486       0.45427433       0.10086116
O        3.12477518       5.38007346      16.45381335       0.03286676      -0.65217468       0.25862015       1.87615561      -0.13926344      -0.27538288
H        3.01999538       9.88095766      19.49087765       0.04502651      -0.09849963      -0.12949011      -0.27207029       0.38597453      -0.04057455
H        5.12244078       5.74507892      18.81465420      -0.13955694       0.03905963      -0.31316828       0.15057969      -0.40597683       0.27956128
H        4.27811313       7.29611001      18.80339229      -0.01302481       0.06999746      -0.09732803      -0.22530870       0.25850683       0.71554458
H        5.14841173       6.85377527      17.41099229      -0.09977705      -0.00952756      -0.05418507       0.08963019      -0.50542223      -0.28674734
C       10.67297443       2.87708276       6.40666227       0.36313359      -0.21896202       0.70524948       1.82526398      -1.51147652       2.35205030
C       11.84372212       2.66014276       5.48824816       0.02818796      -0.73614801       1.24293211       0.24395704       1.23589408       0.22193742
O       12.74423223       3.64567476       5.64061410       0.37646140      -0.27118374      -0.23512813       0.79792351      -0.28902137      -0.42777061
O       11.87874888       1.75500021       4.66351471      -0.15534440      -1.09062888      -0.19326342       0.35928345      -0.63117027      -0.01961255
H       13.67508629       3.50895182       5.05471495       0.04164322      -0.01103841      -0.04990596      -0.76104981      -0.27856627       0.00978750
H       10.93664850       3.44261137      26.00413306      -0.03804120      -0.22336560      -0.16678715       0.40124890       0.53588688      -0.18303788
H       10.35955150       1.93081015      25.57941072      -0.19408844       0.15300362       0.12368032      -0.36974335       0.09401858      -0.78054821
H        9.91307522       3.38616497       5.93415895       0.12597202       0.27851279       0.07040716      -2.16753411       0.93626201      -1.16740632
C        3.24298905       3.60395842      21.22098406      -0.88472673       0.30982790      -0.47250852       0.29596543      -1.53633571      -0.36496052
C        4.51104199       4.29906225      21.57229282       0.26762153      -1.07344543      -0.68493652      -1.34167004       1.55489612       0.33556384
O        5.61063685       3.63105811      21.60079572      -0.16040188       0.08752502       0.45180179      -0.48546082      -0.44892055      -0.05108357
O        4.34887307       5.52914347      21.86132670       0.65200789       0.39395784      -0.34125353       1.26993418      -0.50005609       0.29082516
H        4.11835692       5.23476147      16.01431800       0.01807395       0.03697397       0.06512776      -0.55465114       0.37192190      -0.47327477
H        3.50392585       2.56696048      20.90033316       0.21014837       0.02662747      -0.21581401      -0.49560320       0.56861866       0.33591944
H        2.76021691       4.14102813      20.39369638      -0.09458991       0.18289123       0.04081417      -0.17609638      -0.05436020       0.22330007
H        2.62938492       3.58508632      22.14273860      -0.23195758       0.08034347       0.37493639      -0.07278012      -0.18332437      -0.54169494
C        9.00230766      15.57344877       1.87253592       0.34664976      -1.10716906       0.93645567       0.85520536      -0.36174223      -1.39780140
C        9.34526406      15.84134873       3.26541068       0.51050125       0.07836189      -0.63204794       0.22183216      -0.59052444      -0.82236463
O        8.31563667      16.43443712       3.86171712      -0.80334352       0.36273292       0.72002620      -0.22371328       0.02716368      -0.39320785
O       10.42670564      15.55523435       3.76597538      -0.38582514       0.20702217      -0.51235569       0.16458450      -0.07460769       0.60976243
H       15.05602169      16.83981565      -0.65539956      -0.12949842      -0.08497685       0.32444998      -0.20553474       0.04108369      -0.18806756
H        8.25662788      14.75277001       1.81310251      -0.00919635      -0.21348661      -0.31607676      -0.06092897       0.76698834      -0.25586620
H        9.90518563      15.22477299       1.33658519       0.00414967       0.17166061       0.27229560      -0.36848685       0.18756101       0.03712908
H        8.73163971      16.57880048       1.49270239      -0.08056588      -0.00993904      -0.10544334      -0.53902918      -0.74997622      -0.63531387
C        7.43977178       9.00225670      10.09678818      -0.46412909       1.00811295      -0.84705909      -0.92768323       1.37961924      -0.01722145
C        6.97137617      10.17193568       9.20463112       0.18770447      -0.49208502      -0.15094647       0.77441639      -0.78321517      -0.56100786
O        7.76478178      10.29001312       8.09271744       0.26063266      -0.45497164       0.42968613      -1.07175183       0.70558530       0.89795423
O        5.97425674      10.86912440       9.44087183      -1.82287199       0.60312971       0.09378417       0.69002318      -0.46224129      -0.02714455
H       11.83417011      10.81758880       9.23997174       0.18829543      -0.15255535       0.15011283      -0.24718565       0.31359321      -1.82553697
H        8.29335625       8.56008994       9.64382382       0.11836742      -0.01261712      -0.04007833       0.79775089      -0.68039483      -0.34917736
H        6.60616021       8.31708667      10.19304724       0.05412923       0.18296429      -0.14738476      -0.29780334      -0.50672257      -0.07582562
H        7.66479643       9.31100849      11.12762752       0.04211483       0.11335602       0.18057294       0.03889296       0.25243923      -0.10899755
C       -2.64404466       5.14693852       8.33387320       0.86839872       0.66611165       0.30790041       0.88130510      -1.72437906      -1.07111788
C       -2.83445274       5.72992549       6.92806966      -0.60135017       0.70779238      -0.31602978      -0.64527559      -0.05817527       1.22477126
O       -3.83616472       6.44169546       6.77239716      -0.41994190       0.77553693      -1.22207157      -0.17128646       0.41559446      -0.63509202
O       -1.96144398       5.42855408       5.99376733      -0.70934597       1.02868759      -0.52766771      -0.03152466       0.11050183       0.26329970
H        0.00020301       0.87505052       9.50670751       0.27096481       0.07557770       0.04064511       0.58140337      -0.44165707       0.24208851